# vtk DataFile Version 4.0
vtk output
ASCII
DATASET POLYDATA
POINTS 2682 float
17 39 5.89748 17 38.8008 6 16.8008 39 6 
18 39 5.70014 18 38.5 6 19 39 5.92895 
19 38.8834 6 19.1166 39 6 17 40 5.70014 
16.5 40 6 18 40 5.5 19 40 5.70014 
19.5 40 6 17 41 5.83028 16.7001 41 6 
18 41 5.54296 19 41 5.70014 19.5 41 6 
17 41.3103 6 17.9186 42 6 18 42 5.96131 
18.4697 42 6 19 41.896 6 18 42.0387 6 
15 36 6.83028 15 35.5866 7 14.7001 36 7 
16 36 6.70014 16 35.1488 7 16.7674 36 7 
15 37 6.64708 14.2999 37 7 16 37 6.54296 
17 36.1992 7 17 37 6.64708 18 37 6.70014 
18 36.5 7 19 37 6.89748 19 36.8008 7 
19.1992 37 7 14 38 6.83028 14 37.5 7 
13.7583 38 7 15 38 6.54296 16 38 6.45704 
17 38 6.35292 18 38 6.29986 19 38 6.5 
19.8834 38 7 14 39 6.70014 13.5866 39 7 
15 39 6.5 16 39 6.35292 20 39 6.5 
20 38.1166 7 21 39 6.78146 21 38.6595 7 
21.7123 39 7 14 40 6.83028 13.7583 40 7 
15 40 6.54296 16 40 6.29986 20 40 6.29986 
21 40 6.59754 22 39.3879 7 22 40 6.85668 
22.5 40 7 14 40.4562 7 14.338 41 7 
15 41 6.64708 16 41 6.35292 20 41 6.29986 
21 41 6.58877 22 41 6.91045 22.1987 41 7 
15 41.9131 7 15.1456 42 7 16 42 6.75654 
17 42 6.50909 19 42 6.06401 20 42 6.51684 
21 42 6.72183 21.5169 42 7 22 41.2381 7 
16 42.2258 7 17 42.3336 7 18 42.457 7 
19 42.4857 7 20 42.5756 7 21 42.5254 7 
14 33 7.92895 14 32.9015 8 13.8964 33 8 
15 33 7.70014 15 32.5866 8 16 33 7.70014 
16 32.5866 8 17 33 7.85824 17 32.8149 8 
17.334 33 8 14 34 7.64708 13.338 34 8 
15 34 7.45704 16 34 7.40246 17 34 7.5 
18 33.4083 8 18 34 7.64708 19 34 7.83028 
19 33.7583 8 19.383 34 8 13 35 7.83028 
13 34.5438 8 12.7583 35 8 14 35 7.5 
15 35 7.23192 16 35 7.06054 17 35 7.35292 
18 35 7.5 19 35 7.54296 20 34.4292 8 
20 35 7.66641 20.986 35 8 13 36 7.70014 
12.5866 36 8 14 36 7.35292 17 36 7.10252 
18 36 7.29986 19 36 7.35292 20 36 7.45704 
21 35.0156 8 21 36 7.70014 21.4545 36 8 
13 37 7.65793 12.5633 37 8 14 37 7.16972 
20 37 7.35292 21 37 7.70014 21.4312 37 8 
13 38 7.55394 12.5183 38 8 20 38 7.07105 
21 38 7.44606 21.8438 38 8 13 39 7.5 
12.5 39 8 22 39 7.12005 22 38.1307 8 
23 39 7.5521 23 38.6313 8 23.986 39 8 
13 40 7.57337 12.5734 40 8 23 40 7.14332 
24 39.0128 8 24 40 7.60372 24.4803 40 8 
13 41 7.88508 12.8851 41 8 14 41 7.21041 
23 41 7.33179 24 41 7.81728 24.2194 41 8 
13 41.1701 8 13.7781 42 8 14 42 7.81489 
15 42 7.06776 22 42 7.31173 23 42 7.81728 
23.2899 42 8 24 41.2899 8 14 42.1467 8 
15 42.442 8 16 42.5 8 17 42.5 8 
18 42.5 8 19 42.6471 8 20 43 7.67001 
19.7001 43 8 21 43 7.47462 21.5912 43 8 
22 42.749 8 23 42.2194 8 20 43.1697 8 
21 43.2782 8 14 32 8.68827 14 31.6106 9 
13.4683 32 9 15 32 8.5 15 31.4134 9 
16 32 8.5 16 31.4134 9 17 32 8.68827 
17 31.5917 9 17.666 32 9 13 33 8.6237 
13 32.4114 9 12.5226 33 9 18 33 8.31173 
18 32.1851 9 19 33 8.55394 19 32.4312 9 
20 33 8.88928 20 32.8353 9 20.1472 33 9 
12 34 8.92002 12 33.8511 9 11.9264 34 9 
13 34 8.21041 20 34 8.31173 20.9566 34 9 
12 35 8.62093 11.6791 35 9 21 35 8.00705 
21 34.0364 9 22 35 8.71481 22 34.691 9 
22.3668 35 9 12 36 8.5183 11.5539 36 9 
22 36 8.38752 22.9239 36 9 12 37 8.5 
11.5 37 9 22 37 8.44606 22.6607 37 9 
12 38 8.5 11.5 38 9 22 38 8.13413 
22.906 38 9 12 39 8.5 11.5 39 9 
23 38.0764 9 24 39 8.00926 24 38.5 9 
25 39 8.71852 25 38.7664 9 25.8544 39 9 
12 40 8.66075 11.6883 40 9 25 40 8.44606 
25.8438 40 9 12 40.5317 9 12.249 41 9 
25 41 8.68827 25.4083 41 9 13 42 8.87933 
12.92 42 9 24 42 8.5 24.6332 42 9 
25 41.5317 9 13 42.0736 9 14 42.457 9 
15 42.457 9 16 42.4025 9 17 42.457 9 
18 42.5 9 19 42.6471 9 19.8008 43 9 
22 43 8.54378 23 43 8.90146 23.1607 43 9 
24 42.5468 9 20 43.1025 9 21 43.2429 9 
22 43.1697 9 23 43.071 9 14 30 9.85824 
14 29.8149 10 13.7153 30 10 15 30 9.70014 
15 29.5866 10 16 30 9.70014 16 29.5866 10 
17 30 9.70014 17 29.5866 10 18 30 9.70014 
18 29.5866 10 19 30 9.70014 19 29.5866 10 
19.9844 30 10 13 31 9.72656 13 30.5576 10 
12.5 31 10 14 31 9.39552 15 31 9.29986 
16 31 9.29986 17 31 9.35293 18 31 9.45704 
19 31 9.5 20 30.0173 10 20 31 9.72183 
20.3546 31 10 12 32 9.78959 12 31.5748 10 
11.7247 32 10 13 32 9.24898 18 32 9.14176 
19 32 9.29986 20 32 9.5 20.6749 32 10 
12 33 9.42998 11.4617 33 10 21 33 9.64671 
21 32.4357 10 21.4104 33 10 11.3421 34 10 
21 34 9.03347 22 33.6505 10 22 34 9.69097 
22.309 34 10 11.1697 35 10 23 35 9.57126 
23 34.6332 10 23.4287 35 10 11 36 9.72472 
11 35.4562 10 10.7896 36 10 23 36 9.06176 
24 35.9534 10 24 36 9.97349 24.0265 36 10 
11 37 9.5183 10.5539 37 10 23 37 9.31173 
23.7148 37 10 24 36.0778 10 11 38 9.5 
10.5 38 10 23 38 9.09397 23.906 38 10 
11 39 9.5 10.5 39 10 24 38.0764 10 
25 38.4546 10 26 39 9.06776 26 38.5454 10 
27 39 9.46306 27 38.6556 10 27.604 39 10 
11 40 9.78057 10.7894 40 10 26 40 9.10252 
27 40 9.5 27.6465 40 10 11 40.2291 10 
12 41 9.5 11.7034 41 10 26 41 9.35293 
27 41 9.72183 27.3546 41 10 12 41.2852 10 
12.9015 42 10 16 42 9.97029 15.9222 42 10 
16 41.9844 10 16.0778 42 10 25 42 9.28981 
26 42 9.69139 26.7288 42 10 27 41.7288 10 
13 42.071 10 14 42.2999 10 15 42.1697 10 
17 42.1697 10 18 42.2999 10 19 42.3421 10 
20 42.4461 10 20 43 9.15617 21 42.5539 10 
21 43 9.37195 22 42.7896 10 22 43 9.45622 
22.6724 43 10 24 43 9.83927 24.2217 43 10 
25 42.7181 10 26 42.3264 10 23 43.1025 10 
24 43.071 10 14 29 10.9015 14 28.929 11 
13.8834 29 11 15 29 10.5866 15 28.7001 11 
16 29 10.5633 16 28.6579 11 17 29 10.5183 
17 28.5539 11 18 29 10.5 18 28.5 11 
19 29 10.5183 19 28.5539 11 20 29 10.9587 
20 28.9665 11 20.0349 29 11 12 30 10.92 
12 29.9264 11 11.8793 30 11 13 30 10.4244 
13 29.5168 11 20 30 10.0074 20.7423 30 11 
11 31 10.92 11 30.8793 11 10.9264 31 11 
12 31 10.2734 21 31 10.6607 21 30.4683 11 
21.3117 31 11 11 32 10.6209 10.6791 32 11 
21 32 10.2852 21.6883 32 11 11 33 10.5 
10.5539 33 11 22 33 10.6828 22 32.5676 11 
22.2071 33 11 11 34 10.4367 10.5 34 11 
22.7304 34 11 11 35 10.2417 10.4461 35 11 
23 34.2696 11 24 35 10.7519 24 34.8582 11 
24.1851 35 11 10.2104 36 11 24.8584 36 11 
10 37 10.7583 10 36.5438 11 9.83028 37 11 
24 37 10.2966 24.6237 37 11 10 38 10.5866 
9.70014 38 11 24 38 10.1046 24.7185 38 11 
10 39 10.5866 9.70014 39 11 25 38.2336 11 
26 38.4866 11 27 38.5134 11 28 39 10.5048 
28 38.7664 11 28.2815 39 11 10 39.896 11 
10.0544 40 11 28 40 10.3894 28.4461 40 11 
11 40.6469 11 11.5 41 11 27.9345 41 11 
28 40.883 11 12 41.3421 11 13 41.6471 11 
13 42 10.1428 14 41.7001 11 14 42 10.5 
15 41.6045 11 15 42 10.2835 16 41.4413 11 
17 41.5 11 17 42 10.2534 18 41.6125 11 
18 42 10.4545 19 41.5539 11 19 42 10.4548 
20 41.5539 11 20 42 10.5 21 41.7455 11 
21 42 10.694 21.6417 42 11 27 42 10.5101 
27.1342 42 11 22 42.1473 11 23 42.4266 11 
23 43 10.1562 24 42.5 11 24 43 10.1251 
25 42.5 11 26 42.4541 11 27 42.1119 11 
17 28 11.6351 17 27.6203 12 16.0985 28 12 
18 28 11.5 18 27.4582 12 19 28 11.6607 
19 27.6762 12 19.4671 28 12 13 29 11.9898 
13 28.993 12 12.9872 29 12 14 28.4266 12 
15 28.2258 12 16 28.0387 12 20 28.3668 12 
20.6332 29 12 11 30 11.8299 11 29.8851 12 
10.8851 30 12 12 29.3768 12 21 29.4287 12 
21 30 11.3668 21.5 30 12 10.3768 31 12 
22 31 11.8149 22 30.7519 12 22.1418 31 12 
10.0736 32 12 22 32 11.4083 22.3529 32 12 
10 33 11.6351 10 32.1774 12 9.63508 33 12 
22.4697 33 12 10 34 11.5 9.5 34 12 
22.8658 34 12 10 35 11.4817 9.5 35 12 
23 34.1294 12 24 34.5499 12 24.6309 35 12 
10 36 11.2753 9.44606 36 12 25 35.4568 12 
25 36 11.2728 25.2999 36 12 9.39552 37 12 
25 37 11.5576 25.2734 37 12 9.45704 38 12 
25 38 11.4558 25.4746 38 12 9.5 39 12 
26 38.2871 12 27 38.457 12 28 38.6235 12 
28.6112 39 12 10 40 11.1665 9.80081 40 12 
28.7181 40 12 10 40.1992 12 11 40.6471 12 
11.8008 41 12 16 41 11.6952 15.4562 41 12 
16 40.7896 12 17 40.737 12 17 41 11.6749 
18 40.9382 12 18 41 11.9239 19 40.6762 12 
19 41 11.6607 20 40.5836 12 20 41 11.6351 
21 40.9113 12 21 41 11.9237 21.5 41 12 
27.6032 41 12 28 40.6834 12 12 41.1025 12 
13 41.2999 12 14 41.2999 12 15 41.1697 12 
22 41.0763 12 22 42 11.1601 23 41.3649 12 
23 42 11.4266 24 41.5 12 24 42 11.5 
25 41.6883 12 25 42 11.6465 26 41.9382 12 
26 42 11.9099 27 41.5 12 27 42 11.201 
15 27 12.8303 15 26.7583 13 14.5438 27 13 
16 27 12.6579 16 26.5633 13 17 27 12.5 
17 26.3797 13 18 27 12.3875 18 26.1651 13 
19 27 12.6467 19 26.5896 13 19.4488 27 13 
13 28 12.7822 13 27.6979 13 12.6301 28 13 
14 28 12.4421 14 27.288 13 15 28 12.2435 
16 28 12.0387 20 28 12.4488 20 27.5 13 
20.5512 28 13 12 29 12.5349 12 28.5 13 
11.4114 29 13 21 29 12.4287 21 28.4287 13 
21.5468 29 13 11 29.2966 13 10.2966 30 13 
22 30 12.6662 22 29.6233 13 22.2071 30 13 
10 31 12.5349 10 30.4114 13 9.54679 31 13 
22.5143 31 13 9 32 12.8173 9 31.7101 13 
8.78057 32 13 10 32 12.08 22.6365 32 13 
9 33 12.5734 8.57337 33 13 22.6121 33 13 
9 34 12.5633 8.65793 34 13 23 33.9167 13 
23 34 12.7572 23.1903 34 13 9 35 12.5866 
8.70014 35 13 24 34.171 13 25 35 12.666 
25 34.8149 13 25.1418 35 13 9 36 12.5688 
8.70014 36 13 25.5 36 13 9 37 12.7165 
8.83028 37 13 25.7266 37 13 9 37.4134 13 
9.23192 38 13 26 37.5 13 26 38 12.5169 
26.3691 38 13 9.51434 39 13 20 39 12.8303 
19.67 39 13 20 38.7466 13 21 38.8897 13 
21 39 12.929 21.1036 39 13 27 38.5624 13 
28 39 12.9167 27.906 39 13 10 39.936 13 
10 40 12.8335 10.0809 40 13 17 40 12.8876 
16.5356 40 13 17 39.8876 13 17.808 40 13 
19 40 12.6467 18.0611 40 13 19 39.5248 13 
20 40 12.3955 21 40 12.5587 21.8849 40 13 
28 40 12.9913 27.9872 40 13 11 40.3955 13 
12 40.6045 13 12 41 12.1869 13 40.7001 13 
13 41 12.5 14 40.6579 13 14 41 12.4761 
15 40.4832 13 15 41 12.2534 16 40.1149 13 
18 40.0265 13 22 40.0802 13 22 41 12.0763 
23 40.4058 13 23 41 12.3649 24 40.4582 13 
24 41 12.5 25 40.6465 13 25 41 12.6883 
26 40.92 13 26 41 12.9382 27 40.5349 13 
27 41 12.5468 14 26 13.92 14 25.9264 14 
13.6953 26 14 15 26 13.6454 15 25.7218 14 
16 26 13.5866 16 25.7001 14 17 26 13.4357 
17 25.6471 14 18 26 13.2025 18 25.5888 14 
19 26 13.6828 19 25.7929 14 19.3338 26 14 
12 27 13.7155 12 26.4026 14 11.5552 27 14 
13 27 13.4501 13 26.2087 14 14 27 13.2104 
20 27 13.5 20 26.5204 14 20.5512 27 14 
12 28 13.3763 11.1036 28 14 21 28 13.3668 
[...]
POINT_DATA 2682
SCALARS scalars unsigned_short
LOOKUP_TABLE default
1 1 1 1 1 1 1 1 1 
1 1 1 1 1 1 1 1 1 
1 1 1 1 1 1 1 1 1 
1 1 1 1 1 1 1 1 1 
1 1 1 1 1 1 1 1 1 
1 1 1 1 1 1 1 1 1 
1 1 1 1 1 1 1 1 1 
1 1 1 1 1 1 1 1 1 
1 1 1 1 1 1 1 1 1 
1 1 1 1 1 1 1 1 1 
1 1 1 1 1 1 1 1 1 
1 1 1 1 1 1 1 1 1 
1 1 1 1 1 1 1 1 1 
1 1 1 1 1 1 1 1 1 
1 1 1 1 1 1 1 1 1 
1 1 1 1 1 1 1 1 1 
1 1 1 1 1 1 1 1 1 
1 1 1 1 1 1 1 1 1 
1 1 1 1 1 1 1 1 1 
1 1 1 1 1 1 1 1 1 
1 1 1 1 1 1 1 1 1 
1 1 1 1 1 1 1 1 1 
1 1 1 1 1 1 1 1 1 
1 1 1 1 1 1 1 1 1 
1 1 1 1 1 1 1 1 1 
1 1 1 1 1 1 1 1 1 
1 1 1 1 1 1 1 1 1 
1 1 1 1 1 1 1 1 1 
1 1 1 1 1 1 1 1 1 
1 1 1 1 1 1 1 1 1 
1 1 1 1 1 1 1 1 1 
1 1 1 1 1 1 1 1 1 
1 1 1 1 1 1 1 1 1 
1 1 1 1 1 1 1 1 1 
1 1 1 1 1 1 1 1 1 
1 1 1 1 1 1 1 1 1 
1 1 1 1 1 1 1 1 1 
1 1 1 1 1 1 1 1 1 
1 1 1 1 1 1 1 1 1 
1 1 1 1 1 1 1 1 1 
1 1 1 1 1 1 1 1 1 
1 1 1 1 1 1 1 1 1 
1 1 1 1 1 1 1 1 1 
1 1 1 1 1 1 1 1 1 
1 1 1 1 1 1 1 1 1 
1 1 1 1 1 1 1 1 1 
1 1 1 1 1 1 1 1 1 
1 1 1 1 1 1 1 1 1 
1 1 1 1 1 1 1 1 1 
1 1 1 1 1 1 1 1 1 
1 1 1 1 1 1 1 1 1 
1 1 1 1 1 1 1 1 1 
1 1 1 1 1 1 1 1 1 
1 1 1 1 1 1 1 1 1 
1 1 1 1 1 1 1 1 1 
1 1 1 1 1 1 1 1 1 
1 1 1 1 1 1 1 1 1 
1 1 1 1 1 1 1 1 1 
1 1 1 1 1 1 1 1 1 
1 1 1 1 1 1 1 1 1 
1 1 1 1 1 1 1 1 1 
1 1 1 1 1 1 1 1 1 
1 1 1 1 1 1 1 1 1 
1 1 1 1 1 1 1 1 1 
1 1 1 1 1 1 1 1 1 
1 1 1 1 1 1 1 1 1 
1 1 1 1 1 1 1 1 1 
1 1 1 1 1 1 1 1 1 
1 1 1 1 1 1 1 1 1 
1 1 1 1 1 1 1 1 1 
1 1 1 1 1 1 1 1 1 
1 1 1 1 1 1 1 1 1 
1 1 1 1 1 1 1 1 1 
1 1 1 1 1 1 1 1 1 
1 1 1 1 1 1 1 1 1 
1 1 1 1 1 1 1 1 1 
1 1 1 1 1 1 1 1 1 
1 1 1 1 1 1 1 1 1 
1 1 1 1 1 1 1 1 1 
1 1 1 1 1 1 1 1 1 
1 1 1 1 1 1 1 1 1 
1 1 1 1 1 1 1 1 1 
1 1 1 1 1 1 1 1 1 
1 1 1 1 1 1 1 1 1 
1 1 1 1 1 1 1 1 1 
1 1 1 1 1 1 1 1 1 
1 1 1 1 1 1 1 1 1 
1 1 1 1 1 1 1 1 1 
1 1 1 1 1 1 1 1 1 
1 1 1 1 1 1 1 1 1 
1 1 1 1 1 1 1 1 1 
1 1 1 1 1 1 1 1 1 
1 1 1 1 1 1 1 1 1 
1 1 1 1 1 1 1 1 1 
1 1 1 1 1 1 1 1 1 
1 1 1 1 1 1 1 1 1 
1 1 1 1 1 1 1 1 1 
1 1 1 1 1 1 1 1 1 
1 1 1 1 1 1 1 1 1 
1 1 1 1 1 1 1 1 1 
1 1 1 1 1 1 1 1 1 
1 1 1 1 1 1 1 1 1 
1 1 1 1 1 1 1 1 1 
1 1 1 1 1 1 1 1 1 
1 1 1 1 1 1 1 1 1 
1 1 1 1 1 1 1 1 1 
1 1 1 1 1 1 1 1 1 
1 1 1 1 1 1 1 1 1 
1 1 1 1 1 1 1 1 1 
1 1 1 1 1 1 1 1 1 
1 1 1 1 1 1 1 1 1 
1 1 1 1 1 1 1 1 1 
1 1 1 1 1 1 1 1 1 
1 1 1 1 1 1 1 1 1 
1 1 1 1 1 1 1 1 1 
1 1 1 1 1 1 1 1 1 
1 1 1 1 1 1 1 1 1 
1 1 1 1 1 1 1 1 1 
1 1 1 1 1 1 1 1 1 
1 1 1 1 1 1 1 1 1 
1 1 1 1 1 1 1 1 1 
1 1 1 1 1 1 1 1 1 
1 1 1 1 1 1 1 1 1 
1 1 1 1 1 1 1 1 1 
1 1 1 1 1 1 1 1 1 
1 1 1 1 1 1 1 1 1 
1 1 1 1 1 1 1 1 1 
1 1 1 1 1 1 1 1 1 
1 1 1 1 1 1 1 1 1 
1 1 1 1 1 1 1 1 1 
1 1 1 1 1 1 1 1 1 
1 1 1 1 1 1 1 1 1 
1 1 1 1 1 1 1 1 1 
1 1 1 1 1 1 1 1 1 
1 1 1 1 1 1 1 1 1 
1 1 1 1 1 1 1 1 1 
1 1 1 1 1 1 1 1 1 
1 1 1 1 1 1 1 1 1 
1 1 1 1 1 1 1 1 1 
1 1 1 1 1 1 1 1 1 
1 1 1 1 1 1 1 1 1 
1 1 1 1 1 1 1 1 1 
1 1 1 1 1 1 1 1 1 
1 1 1 1 1 1 1 1 1 
1 1 1 1 1 1 1 1 1 
1 1 1 1 1 1 1 1 1 
1 1 1 1 1 1 1 1 1 
1 1 1 1 1 1 1 1 1 
1 1 1 1 1 1 1 1 1 
1 1 1 1 1 1 1 1 1 
1 1 1 1 1 1 1 1 1 
1 1 1 1 1 1 1 1 1 
1 1 1 1 1 1 1 1 1 
1 1 1 1 1 1 1 1 1 
1 1 1 1 1 1 1 1 2 
2 2 2 2 2 2 2 2 2 
2 2 2 2 2 2 2 2 2 
2 2 2 2 2 2 2 2 2 
2 2 2 2 2 2 2 2 2 
2 2 2 2 2 2 2 2 2 
2 2 2 2 2 2 2 2 2 
2 2 2 2 2 2 2 2 2 
2 2 2 2 2 2 2 2 2 
2 2 2 2 2 2 2 2 2 
2 2 2 2 2 2 2 2 2 
2 2 2 2 2 2 2 2 2 
2 2 2 2 2 2 2 2 2 
2 2 2 2 2 2 2 2 2 
2 2 2 2 2 2 2 2 2 
2 2 2 2 2 2 2 2 2 
2 2 2 2 2 2 2 2 2 
2 2 2 2 2 2 2 2 2 
2 2 2 2 2 2 2 2 2 
2 2 2 2 2 2 2 2 2 
2 2 2 2 2 2 2 2 2 
2 2 2 2 2 2 2 2 2 
2 2 2 2 2 2 2 2 2 
2 2 2 2 2 2 2 2 2 
2 2 2 2 2 2 2 2 2 
2 2 2 2 2 2 2 2 2 
2 2 2 2 2 2 2 2 2 
2 2 2 2 2 2 2 2 2 
2 2 2 2 2 2 2 2 2 
2 2 2 2 2 2 2 2 2 
2 2 2 2 2 2 2 2 2 
2 2 2 2 2 2 2 2 2 
2 2 2 2 2 2 2 2 2 
2 2 2 2 2 2 2 2 2 
2 2 2 2 2 2 2 2 2 
2 2 2 2 2 2 2 2 2 
2 2 2 2 2 2 2 2 2 
2 2 2 2 2 2 2 2 2 
2 2 2 2 2 2 2 2 2 
2 2 2 2 2 2 2 2 2 
2 2 2 2 2 2 2 2 2 
2 2 2 2 2 2 2 2 2 
2 2 2 2 2 2 2 2 2 
2 2 2 2 2 2 2 2 2 
2 2 2 2 2 2 2 2 2 
2 2 2 2 2 2 2 2 2 
2 2 2 2 2 2 2 2 2 
2 2 2 2 2 2 2 2 2 
2 2 2 2 2 2 2 2 2 
2 2 2 2 2 2 2 2 2 
2 2 2 2 2 2 2 2 2 
2 2 2 2 2 2 2 2 2 
2 2 2 2 2 2 2 2 2 
2 2 2 2 2 2 2 2 2 
2 2 2 2 2 2 2 2 2 
2 2 2 2 2 2 2 2 2 
2 2 2 2 2 2 2 2 2 
2 2 2 2 2 2 2 2 2 
2 2 2 2 2 2 2 2 2 
2 2 2 2 2 2 2 2 2 
2 2 2 2 2 2 2 2 2 
2 2 2 2 2 2 2 2 2 
2 2 2 2 2 2 2 2 2 
2 2 2 2 2 2 2 2 2 
2 2 2 2 2 2 2 2 2 
2 2 2 2 2 2 2 2 2 
2 2 2 2 2 2 2 2 2 
2 2 2 2 2 2 2 2 2 
2 2 2 2 2 2 2 2 2 
2 2 2 2 2 2 2 2 2 
2 2 2 2 2 2 2 2 2 
2 2 2 2 2 2 2 2 2 
2 2 2 2 2 2 2 2 2 
2 2 2 2 2 2 2 2 2 
2 2 2 2 2 2 2 2 2 
2 2 2 2 2 2 2 2 2 
2 2 2 2 2 2 2 2 2 
2 2 2 2 2 2 2 2 2 
2 2 2 2 2 2 2 2 2 
2 2 2 2 2 2 2 2 2 
2 2 2 2 2 2 2 2 2 
2 2 2 2 2 2 2 2 2 
2 2 2 2 2 2 2 2 2 
2 2 2 2 2 2 2 2 2 
2 2 2 2 2 2 2 2 2 
2 2 2 2 2 2 2 2 2 
2 2 2 2 2 2 2 2 2 
2 2 2 2 2 2 2 2 2 
2 2 2 2 2 2 2 2 2 
2 2 2 2 2 2 2 2 2 
2 2 2 2 2 2 2 2 2 
2 2 2 2 2 2 2 2 2 
2 2 2 2 2 2 2 2 2 
2 2 2 2 2 2 2 2 2 
2 2 2 2 2 2 2 2 2 
2 2 2 2 2 2 2 2 2 
2 2 2 2 2 2 2 2 2 
2 2 2 2 2 2 2 2 2 
2 2 2 2 2 2 2 2 2 
2 2 2 2 2 2 2 2 2 
2 2 2 2 2 2 2 2 2 
2 2 2 2 2 2 2 2 2 
2 2 2 2 2 2 2 2 2 
2 2 2 2 2 2 2 2 2 
2 2 2 2 2 2 2 2 2 
2 2 2 2 2 2 2 2 2 
2 2 2 2 2 2 2 2 2 
2 2 2 2 2 2 2 2 2 
2 2 2 2 2 2 2 2 2 
2 2 2 2 2 2 2 2 2 
2 2 2 2 2 2 2 2 2 
2 2 2 2 2 2 2 2 2 
2 2 2 2 2 2 2 2 2 
2 2 2 2 2 2 2 2 2 
2 2 2 2 2 2 2 2 2 
2 2 2 2 2 2 2 2 2 
2 2 2 2 2 2 2 2 2 
2 2 2 2 2 2 2 2 2 
2 2 2 2 2 2 2 2 2 
2 2 2 2 2 2 2 2 2 
2 2 2 2 2 2 2 2 2 
2 2 2 2 2 2 2 2 2 
2 2 2 2 2 2 2 2 2 
2 2 2 2 2 2 2 2 2 
2 2 2 2 2 2 2 2 2 
2 2 2 2 2 2 2 2 2 
2 2 2 2 2 2 2 2 2 
2 2 2 2 2 2 2 2 2 
2 2 2 2 2 2 2 2 2 
2 2 2 2 2 2 2 2 2 
2 2 2 2 2 2 2 2 2 
2 2 2 2 2 2 2 2 2 
2 2 2 2 2 2 2 2 2 
2 2 2 2 2 2 2 2 2 
2 2 2 2 2 2 2 2 2 
2 2 2 2 2 2 2 2 2 
2 2 2 2 2 2 2 2 2 
2 2 2 2 2 2 2 2 2 
2 2 2 2 2 2 2 2 2 
2 2 2 2 2 2 2 2 2 
2 2 2 2 2 2 2 2 2 
2 2 2 2 2 2 2 2 2 
2 2 2 2 2 2 2 2 2 
2 2 2 2 2 2 2 2 2 

NORMALS normals float
-0.339222 -0.339222 -0.877415 -0.302605 -0.360534 -0.882296 -0.351753 -0.303691 -0.885461 
0.012 -0.417685 -0.908513 0.0327324 -0.488036 -0.87221 0.386697 -0.386697 -0.837216 
0.382265 -0.403152 -0.83147 0.399799 -0.382879 -0.832805 -0.41751 -0.0313368 -0.908132 
-0.468899 -0.0172997 -0.883082 0 -0.0905643 -0.995891 0.415128 -0.11114 -0.902949 
0.473631 -0.1045 -0.874502 -0.422086 0.307509 -0.852808 -0.438212 0.282212 -0.85342 
-0.063712 0.226098 -0.972019 0.386885 0.150248 -0.909805 0.457673 0.13022 -0.879533 
-0.422872 0.406135 -0.810082 -0.187472 0.689889 -0.699219 -0.170174 0.688897 -0.704601 
0.0372604 0.67374 -0.738029 0.300124 0.565834 -0.767956 -0.170174 0.704601 -0.688897 
-0.336546 -0.297239 -0.893524 -0.314366 -0.329444 -0.890304 -0.380682 -0.277101 -0.882211 
0.123834 -0.280875 -0.951722 0.0870549 -0.386819 -0.918037 0.274749 -0.366928 -0.88875 
-0.314098 -0.166306 -0.934711 -0.459313 -0.240527 -0.85509 1.80131e-08 -0.15193 -0.988391 
0.274273 -0.3873 -0.880212 0.096816 -0.386004 -0.917403 0.124635 -0.489199 -0.863221 
0.141623 -0.483376 -0.863881 0.327886 -0.416205 -0.848094 0.295617 -0.41195 -0.861921 
0.352031 -0.383042 -0.854022 -0.47665 -0.219904 -0.851144 -0.497245 -0.243253 -0.832812 
-0.528634 -0.203208 -0.824168 -0.213246 -0.092934 -0.972568 -0.121855 -0.121855 -0.985039 
-0.096816 -0.386004 -0.917403 0.0706434 -0.491811 -0.867831 0.357459 -0.44289 -0.822236 
0.427355 -0.411672 -0.804918 -0.457859 0 -0.889025 -0.580631 0 -0.814167 
-0.205925 0 -0.978568 -0.316952 -0.0995389 -0.943204 0.401215 -0.365197 -0.840034 
0.419607 -0.415124 -0.807219 0.28482 -0.405003 -0.868821 0.303252 -0.457105 -0.836118 
0.332569 -0.450486 -0.828529 -0.475227 0.232445 -0.848604 -0.528022 0.222749 -0.819497 
-0.293916 0.0909205 -0.951497 -0.43661 0 -0.899651 0.455848 -0.10248 -0.884138 
0.311253 -0.105883 -0.94441 0.34417 -0.3191 -0.883019 0.304794 -0.0838951 -0.948716 
0.34827 -0.0716954 -0.934649 -0.507749 0.290841 -0.810927 -0.49249 0.324685 -0.807486 
-0.411001 0.230942 -0.881898 -0.403433 0.217376 -0.888814 0.452302 0.107628 -0.885347 
0.331996 0.0694533 -0.94072 0.397277 0.197774 -0.896134 0.407388 0.223587 -0.885463 
-0.412813 0.579604 -0.702599 -0.378767 0.627259 -0.680502 -0.22261 0.677838 -0.7007 
-0.269587 0.742706 -0.612953 0.267949 0.629963 -0.728938 0.266618 0.472595 -0.839981 
0.35237 0.318801 -0.879887 0.438983 0.387791 -0.810501 0.431795 0.253919 -0.865493 
-0.178391 0.784439 -0.593996 -0.137289 0.894982 -0.42445 -0.0908826 0.969967 -0.225621 
-0.0603082 0.939059 -0.338425 -0.0406624 0.725167 -0.687372 0.304873 0.534291 -0.788407 
-0.40047 -0.446628 -0.800092 -0.395696 -0.469442 -0.789334 -0.421528 -0.448145 -0.78834 
-0.107648 -0.472779 -0.874581 -0.100348 -0.583713 -0.805735 0.0767 -0.4943 -0.865901 
0.0801183 -0.591798 -0.802095 0.262268 -0.524305 -0.810136 0.267763 -0.559806 -0.784169 
0.285136 -0.563096 -0.775642 -0.367994 -0.225358 -0.902105 -0.487342 -0.307541 -0.817262 
-0.147836 -0.265685 -0.952657 0.0257428 -0.344533 -0.938421 0.151356 -0.278179 -0.948529 
0.268032 -0.54104 -0.797141 0.186077 -0.371047 -0.90978 0.288263 -0.46787 -0.835465 
0.292227 -0.516332 -0.804987 0.345363 -0.507444 -0.789446 -0.489805 -0.230324 -0.840858 
-0.514683 -0.283467 -0.809165 -0.539895 -0.222836 -0.8117 -0.324254 -0.175941 -0.929464 
-0.249672 -0.332107 -0.909598 0.0772612 -0.394022 -0.915848 0.248459 -0.22398 -0.942391 
0.116145 -0.204531 -0.971945 0.101027 -0.268914 -0.957851 0.356788 -0.502991 -0.787212 
0.231835 -0.402171 -0.885726 0.450331 -0.491669 -0.745295 -0.510316 -0.0863634 -0.855639 
-0.601283 -0.0662313 -0.796286 -0.425925 -0.181296 -0.886408 0.305424 -0.372262 -0.876434 
0.130069 -0.414167 -0.900859 0.0987259 -0.339253 -0.9355 0.205007 -0.185978 -0.960929 
0.453698 -0.487315 -0.746111 0.451436 -0.134034 -0.88218 0.537295 -0.123693 -0.834275 
-0.567415 -0.0717037 -0.820304 -0.632636 -0.0274761 -0.773962 -0.491858 -0.246746 -0.834981 
0.400141 -0.199646 -0.894443 0.500069 -0.121306 -0.857447 0.575857 -0.114841 -0.809444 
-0.652655 -0.0767056 -0.753763 -0.685652 -0.025149 -0.727495 0.426528 -0.405711 -0.808377 
0.411194 -0.425946 -0.805909 0.547945 -0.493344 -0.67555 -0.69067 0.0077575 -0.723129 
-0.706901 0.0241471 -0.706901 0.353318 -0.4775 -0.804462 0.533492 -0.53405 -0.655879 
0.357076 -0.624411 -0.694699 0.353985 -0.733515 -0.580215 0.45305 -0.602323 -0.657231 
-0.670746 0.161242 -0.723948 -0.713666 0.158952 -0.682213 0.380372 -0.071884 -0.922036 
0.457673 -0.594881 -0.660797 0.575164 -0.0602566 -0.815816 0.626704 -0.0346374 -0.778488 
-0.652234 0.375433 -0.658514 -0.672211 0.375819 -0.637881 -0.51978 0.366026 -0.771916 
0.418836 0.324198 -0.848217 0.55955 0.345728 -0.753243 0.588547 0.341266 -0.732905 
-0.653141 0.411621 -0.635591 -0.487761 0.688014 -0.537331 -0.476428 0.678828 -0.558756 
-0.401088 0.630876 -0.664172 0.486115 0.466939 -0.738688 0.438704 0.541625 -0.717064 
0.461753 0.548833 -0.696826 0.560568 0.405313 -0.722139 -0.441137 0.741417 -0.505667 
-0.192305 0.955367 -0.224261 -0.037365 0.995654 -0.0853051 0 0.997464 -0.071167 
-0.0905277 0.995488 -0.0284303 -0.344644 0.933541 -0.0985995 -0.296267 0.89176 -0.342038 
-0.362214 0.913659 -0.184468 0.223379 0.834105 -0.504351 0.353905 0.847812 -0.394926 
0.443242 0.735894 -0.511856 0.431698 0.580236 -0.690625 -0.332164 0.919871 -0.208576 
0.173018 0.956114 -0.236454 -0.305999 -0.60854 -0.73215 -0.273483 -0.574952 -0.771127 
-0.398971 -0.537808 -0.742688 -0.0801784 -0.670965 -0.737141 -0.0650101 -0.604 -0.794328 
0.0801784 -0.670965 -0.737141 0.0560741 -0.604329 -0.79476 0.267949 -0.622158 -0.73561 
0.211468 -0.566789 -0.796261 0.276634 -0.557972 -0.782394 -0.557303 -0.422172 -0.714971 
-0.501502 -0.464125 -0.730126 -0.582295 -0.412712 -0.70043 0.294217 -0.617189 -0.729735 
0.272259 -0.550754 -0.789015 0.246181 -0.613393 -0.750429 0.200291 -0.549299 -0.811267 
0.438502 -0.494267 -0.750611 0.427598 -0.487595 -0.761191 0.46178 -0.48659 -0.741612 
-0.695249 -0.3106 -0.648195 -0.690162 -0.320681 -0.648722 -0.710949 -0.305487 -0.633427 
-0.528053 -0.337106 -0.779435 0.447337 -0.518911 -0.728437 0.49759 -0.560888 -0.661671 
-0.726389 -0.163302 -0.667601 -0.788702 -0.167166 -0.591613 0.45266 -0.492873 -0.743085 
0.495244 -0.565828 -0.65922 0.532505 -0.484111 -0.694316 0.502352 -0.555676 -0.66247 
0.545847 -0.499361 -0.672822 -0.711879 -0.0501437 -0.70051 -0.749783 -0.0849864 -0.656203 
0.586935 -0.109458 -0.802201 0.62705 -0.071729 -0.775669 -0.694694 -0.00771604 -0.719264 
-0.7107 -0.0242769 -0.703076 0.644123 -0.0831201 -0.760392 0.66863 0.00162003 -0.743593 
-0.703283 0 -0.71091 -0.707107 0 -0.707107 0.568063 -0.493608 -0.658525 
0.592076 -0.507738 -0.625817 -0.705823 0.0602335 -0.705823 -0.705025 0.0766851 -0.705025 
0.57124 -0.547365 -0.611618 0.453745 -0.603023 -0.656109 0.337386 -0.838709 -0.427478 
0.379902 -0.606448 -0.698495 0.291326 -0.750045 -0.593769 0.323446 -0.457503 -0.828295 
-0.720309 0.261868 -0.642324 -0.710004 0.296743 -0.638622 0.629766 -0.000920596 -0.776784 
0.505798 0.141589 -0.850953 -0.740735 0.397922 -0.541267 -0.758466 0.474415 -0.446832 
0.612753 0.328405 -0.718807 0.550397 0.31492 -0.773233 -0.622734 0.724758 -0.294837 
-0.633404 0.728659 -0.260489 0.526091 0.558108 -0.641673 0.511952 0.523963 -0.680712 
0.547622 0.421671 -0.722706 -0.609744 0.750977 -0.253468 -0.18879 0.979813 -0.0657607 
0.0351159 0.988154 0.149393 0 0.961937 0.27327 -0.0642479 0.980195 0.187325 
-0.117826 0.986019 0.117826 -0.313811 0.933857 0.171565 -0.32717 0.894205 0.305546 
0.280379 0.931317 -0.232457 0.278212 0.879124 -0.386961 0.291812 0.873788 -0.389026 
0.479218 0.667347 -0.570086 -0.310408 0.890736 0.332018 -0.0336705 0.940875 0.337078 
0.0962419 0.995353 0.00316426 0.257235 0.900041 -0.351791 -0.288201 -0.553427 -0.781447 
-0.294974 -0.587069 -0.753883 -0.335509 -0.566119 -0.752957 -0.0750043 -0.526666 -0.846757 
-0.0809461 -0.616208 -0.783413 0 -0.528153 -0.849149 0 -0.615105 -0.788445 
0 -0.51223 -0.858848 0 -0.602606 -0.798039 0 -0.475542 -0.879693 
0 -0.586674 -0.809823 0.133858 -0.453739 -0.881024 0.127574 -0.578935 -0.805332 
0.508187 -0.441276 -0.739609 -0.396955 -0.470451 -0.7881 -0.419378 -0.514955 -0.747625 
-0.436886 -0.452734 -0.777279 -0.216614 -0.499634 -0.838716 -0.0509432 -0.527468 -0.848046 
0.0292889 -0.527927 -0.848785 0.0932541 -0.458764 -0.883651 0.0906654 -0.302501 -0.948827 
0.150974 -0.229784 -0.961461 0.513915 -0.436282 -0.738613 0.481825 -0.23496 -0.844179 
0.593168 -0.244712 -0.766986 -0.540851 -0.343858 -0.767621 -0.51365 -0.376969 -0.770752 
-0.578022 -0.299058 -0.759246 -0.457478 -0.466607 -0.756963 0.264773 -0.510859 -0.817874 
0.179789 -0.441195 -0.879217 0.414195 -0.377112 -0.82839 0.597097 -0.355352 -0.719166 
-0.646237 -0.317929 -0.693758 -0.718339 -0.151843 -0.67892 0.577667 -0.451679 -0.679916 
0.612404 -0.411797 -0.674822 0.601055 -0.489318 -0.631903 -0.806539 -0.137124 -0.575058 
0.49694 -0.561806 -0.66138 0.60189 -0.574237 -0.554959 0.555735 -0.604176 -0.571078 
0.609431 -0.619673 -0.49457 -0.811127 -0.240427 -0.533168 0.603819 -0.547052 -0.579773 
0.619494 -0.636096 -0.460009 0.620211 -0.578059 -0.53027 -0.774228 -0.228323 -0.590288 
-0.790949 -0.25615 -0.555686 -0.780409 -0.2663 -0.565726 0.632403 -0.0711359 -0.771367 
0.712648 -0.101778 -0.694099 0.711803 -0.080849 -0.69771 0.713128 -0.0808981 -0.696351 
-0.725471 -0.0786423 -0.683745 -0.749282 -0.132925 -0.648774 0.680331 0.0254678 -0.732462 
0.709651 0.0486753 -0.70287 0.712848 -0.0725692 -0.697554 -0.707086 -0.0075854 -0.707086 
-0.72293 -0.0246946 -0.69048 0.59365 -0.505738 -0.625947 0.613169 -0.520047 -0.594621 
-0.703523 0.100554 -0.703523 -0.718727 0.110437 -0.686466 0.590652 -0.568094 -0.573062 
0.252522 -0.921071 -0.296414 0.314844 -0.449337 -0.836044 0.129851 -0.955382 -0.265301 
0.489568 -0.46957 -0.734729 0.361629 -0.831398 -0.421902 0.651608 -0.484824 -0.583397 
-0.690425 0.424523 -0.585742 -0.690831 0.440071 -0.573663 0.483395 0.14716 -0.862945 
0.522244 0.137485 -0.841641 0.688387 0.109485 -0.717033 -0.685673 0.509695 -0.519676 
-0.72357 0.582753 -0.369926 -0.671853 0.682883 -0.286854 0.451728 0.277927 -0.847761 
0.554869 0.274454 -0.785363 0.65958 0.292024 -0.692586 -0.671597 0.707507 -0.21998 
-0.477014 0.854541 0.205468 0 0.867899 0.49674 0.0125957 0.866432 0.499136 
0 0.865484 0.500937 -0.0125791 0.865289 0.501115 0.480756 0.560544 -0.674288 
0.374715 0.611261 -0.6971 0.527411 0.64747 -0.550109 0.598624 0.532759 -0.598179 
-0.448159 0.864799 0.226443 -0.0438678 0.919366 0.390951 0.155916 0.879766 0.449112 
-0.153797 0.867814 0.472489 -0.0904035 0.895667 0.43544 -0.0750248 0.858297 0.507639 
-0.10477 0.768138 0.631654 -0.291832 0.876474 0.382919 -0.163238 0.769863 0.616981 
-0.0852439 0.881121 0.465144 -0.257026 0.847258 0.464856 -0.0752824 0.970154 0.230507 
-0.180283 0.915063 0.360774 0.235551 0.971148 -0.0372363 0.231586 0.972626 0.019125 
0.393099 0.887644 -0.23992 0.382914 0.768031 -0.513328 -0.135751 0.944147 0.300262 
0.180293 0.981451 0.0651802 -0.360413 -0.774223 -0.52027 -0.361708 -0.783112 -0.505869 
-0.376601 -0.778534 -0.502052 -0.109769 -0.781242 -0.614501 -0.124234 -0.835749 -0.534873 
-0.0280798 -0.762365 -0.646537 -0.0707701 -0.809623 -0.582668 -0.0257178 -0.71254 -0.70116 
-0.0752425 -0.739386 -0.669065 0 -0.690691 -0.72315 0 -0.707107 -0.707107 
0.146362 -0.7051 -0.693839 0.182322 -0.732449 -0.655955 0.525809 -0.664828 -0.530593 
0.527748 -0.667444 -0.525358 0.536934 -0.66145 -0.523627 -0.411835 -0.66579 -0.622186 
-0.407918 -0.68305 -0.605843 -0.427997 -0.665388 -0.611619 -0.412081 -0.634777 -0.653642 
-0.415397 -0.746895 -0.519224 0.514519 -0.440237 -0.735841 0.714059 -0.466083 -0.522385 
-0.682812 -0.355817 -0.638093 -0.680683 -0.381047 -0.625678 -0.700309 -0.351766 -0.621151 
-0.467212 -0.439196 -0.767346 0.691396 -0.334032 -0.64062 0.708872 -0.414101 -0.570982 
0.690875 -0.359956 -0.626996 -0.728472 -0.168368 -0.664064 -0.781115 -0.165558 -0.602038 
0.643083 -0.365622 -0.672878 0.705681 -0.357253 -0.611869 -0.741591 -0.0733459 -0.666831 
-0.74312 -0.0842311 -0.663836 0.736517 -0.467006 -0.489334 0.757444 -0.404915 -0.512175 
0.797752 -0.435578 -0.41697 -0.771139 -0.0896137 -0.630328 -0.718418 -0.0490811 -0.693878 
0.7318 -0.645181 -0.219571 -0.79757 -0.227107 -0.558843 -0.749282 -0.132925 -0.648774 
0.665517 -0.714981 -0.214217 0.599373 -0.67152 -0.435675 0.575909 -0.720913 -0.385505 
0.604749 -0.689231 -0.39905 -0.780409 -0.2663 -0.565726 0.825476 -0.145222 -0.545436 
-0.804642 -0.217724 -0.552401 -0.795992 -0.249878 -0.551324 -0.823666 -0.225615 -0.520262 
0.72395 0.0545272 -0.687694 0.78169 0.0651895 -0.620251 -0.808479 -0.0575843 -0.585701 
-0.877766 -0.0661571 -0.4745 0.622701 -0.517293 -0.58707 0.699777 -0.517225 -0.492738 
-0.806617 0.135866 -0.575247 -0.879595 0.145259 -0.453003 0.590718 -0.70094 -0.399668 
0.155415 -0.97572 -0.154325 0.154434 -0.980789 -0.119179 0.71573 -0.505511 -0.481859 
0.591036 -0.740653 -0.319546 0.719644 -0.574756 -0.389574 -0.749069 0.518808 -0.411988 
-0.724399 0.566609 -0.392684 0.787629 0.152624 -0.596947 0.874532 0.161088 -0.457432 
-0.576576 0.80228 -0.15462 -0.549237 0.835629 -0.00787389 0.825582 0.550073 -0.125838 
0.843435 0.510541 -0.167226 -0.488627 0.867326 0.0948127 -0.196009 0.903853 0.380303 
-0.420703 0.870616 0.255023 0.0222357 0.86979 0.492921 -0.0172353 0.879793 0.475044 
0.141342 0.867122 0.477621 0.152756 0.866266 0.475657 0.0607709 0.841188 0.537317 
-0.087619 0.797183 0.597346 -0.14514 0.843543 0.517079 -0.028101 0.806731 0.59025 
-0.0649148 0.842829 0.534252 0.028701 0.758368 0.651194 -0.018717 0.803236 0.595367 
-0.0843331 0.743114 0.66383 -0.0867924 0.747982 0.65802 -0.232617 0.752013 0.616738 
-0.226946 0.753613 0.616898 -0.27092 0.724482 0.63382 0.620122 0.765172 -0.173091 
0.601284 0.785879 0.144402 -0.281529 0.719303 0.635095 -0.154903 0.736545 0.658412 
-0.142687 0.922577 0.358457 -0.0348215 0.775763 0.630063 0.162158 0.977046 0.138154 
0.0290687 0.890858 0.45335 0.205459 0.961745 0.181197 0.562465 0.813616 0.147181 
-0.186367 -0.703124 -0.68621 -0.196722 -0.661384 -0.72379 -0.237414 -0.686163 -0.687616 
0.00767478 -0.698655 -0.715418 0.0251108 -0.658115 -0.752499 0.285825 -0.708142 -0.645631 
0.324069 -0.677798 -0.659977 0.432529 -0.681454 -0.590372 -0.416748 -0.713229 -0.563583 