# vtk DataFile Version 4.0
vtk output
ASCII
DATASET POLYDATA
POINTS 2750 float
17 39 5.89748 17 38.8008 6 16.8008 39 6 
18 39 5.70014 18 38.5 6 19 39 5.89748 
19 38.8008 6 19.1992 39 6 17 40 5.70014 
16.5 40 6 18 40 5.5 19 40 5.70014 
19.5 40 6 17 41 5.85824 16.7848 41 6 
18 41 5.54296 19 41 5.70014 19.5 41 6 
17 41.2342 6 17.9306 42 6 18 42 5.96131 
18.4697 42 6 19 41.896 6 18 42.0387 6 
15 36 6.83028 15 35.7001 7 14.5866 36 7 
16 36 6.70014 16 35.5 7 17 36 6.70014 
17 35.5 7 18 36 6.83028 18 35.7001 7 
18.5 36 7 14 37 6.83028 14 36.5866 7 
13.7466 37 7 15 37 6.54296 16 37 6.5 
17 37 6.5 18 37 6.54296 19 36.2999 7 
19 37 6.64708 20 37 6.83028 20 36.7001 7 
20.4134 37 7 14 38 6.70014 13.5239 38 7 
15 38 6.5 16 38 6.45704 17 38 6.35292 
18 38 6.29986 19 38 6.35292 20 38 6.5 
21 37.5866 7 21 38 6.83028 21.2999 38 7 
14 39 6.70014 13.5 39 7 15 39 6.5 
16 39 6.35292 20 39 6.35292 21 39 6.64708 
21.7001 39 7 14 40 6.85824 13.7848 40 7 
15 40 6.54296 16 40 6.29986 20 40 6.29986 
21 40 6.54296 22 39.5 7 22 40 6.83028 
22.2999 40 7 14 40.2342 7 14.8717 41 7 
15 41 6.92637 16 41 6.51684 20 41 6.29986 
21 41 6.54296 22 41 6.83028 22.2835 41 7 
15 41.08 7 16 41.5756 7 17 42 6.68278 
16.6233 42 7 19 42 6.06776 20 42 6.64545 
21 42 6.96131 21.0814 42 7 22 41.3103 7 
17 42.2071 7 18 42.457 7 19 42.442 7 
20 42.2871 7 21 42.0387 7 14 33 7.85824 
14 32.8064 8 13.7519 33 8 15 33 7.70014 
15 32.5239 8 16 33 7.70014 16 32.5 8 
17 33 7.83028 17 32.7165 8 17.5 33 8 
13 34 7.85824 13 33.7519 8 12.8149 34 8 
14 34 7.54296 15 34 7.5 16 34 7.5 
17 34 7.54296 18 33.2999 8 18 34 7.64708 
19 34 7.70014 19 33.5 8 20 34 7.83028 
20 33.7165 8 20.5 34 8 13 35 7.70014 
12.5866 35 8 14 35 7.45704 15 35 7.35292 
16 35 7.29986 17 35 7.29986 18 35 7.35292 
19 35 7.45704 20 35 7.54296 21 34.2999 8 
21 35 7.64708 22 35 7.83028 22 34.7165 8 
22.383 35 8 13 36 7.65793 12.5633 36 8 
14 36 7.23192 19 36 7.16972 20 36 7.35292 
21 36 7.45704 22 36 7.54296 23 35.5317 8 
23 36 7.76808 23.5 36 8 13 37 7.5 
12.3535 37 8 21 37 7.23192 22 37 7.45704 
23 37 7.54296 24 36.5866 8 24 37 7.83028 
24.2999 37 8 12 38 7.85824 12 37.666 8 
11.8149 38 8 13 38 7.34207 22 38 7.35292 
23 38 7.5 24 38 7.70014 24.5 38 8 
12 39 7.72183 11.6454 39 8 13 39 7.29986 
22 39 7.16972 23 39 7.45704 24 39 7.70014 
24.5 39 8 12 39.7931 8 12.1403 40 8 
13 40 7.51684 23 40 7.35292 24 40 7.70014 
24.4761 40 8 13 40.5997 8 14 41 7.61602 
13.5275 41 8 23 41 7.39552 24 41 7.85824 
24.1936 41 8 14 41.3032 8 15 41.6045 8 
16 42 7.96012 15.9677 42 8 22 42 7.50909 
23 42 7.92002 23.1283 42 8 24 41.2342 8 
16 42.0156 8 17 42.4112 8 18 42.5 8 
19 42.5 8 20 42.5 8 21 42.457 8 
22 42.3336 8 23 42.0736 8 15 31 8.83028 
15 30.7583 9 14.617 31 9 16 31 8.70014 
16 30.5866 9 17 31 8.83028 17 30.7583 9 
17.5 31 9 14 32 8.6237 14 31.4424 9 
13.4114 32 9 15 32 8.34207 16 32 8.29986 
17 32 8.39552 18 31.2835 9 18 32 8.60448 
19 32 8.70014 19 31.5 9 20 32 8.85824 
20 31.7848 9 20.334 32 9 13 33 8.5 
13 32.3668 9 12.4532 33 9 18 33 8.16972 
19 33 8.29986 20 33 8.39552 21 32.3894 9 
21 33 8.60448 22 33 8.85824 22 32.8149 9 
22.2847 33 9 12 34 8.78057 12 33.67 9 
11.8173 34 9 21 34 8.16972 22 34 8.39552 
23 33.5576 9 23 34 8.72656 23.5748 34 9 
12 35 8.5183 11.5539 35 9 23 35 8.27344 
24 34.3205 9 24 35 8.60448 25 35 8.83028 
25 34.7466 9 25.383 35 9 12 36 8.5 
11.5 36 9 24 36 8.23192 25 36 8.5 
26 35.617 9 26 36 8.83028 26.2835 36 9 
12 37 8.31173 11.3117 37 9 25 37 8.35293 
26 37 8.70014 26.5 37 9 11 38 8.81489 
11 37.666 9 10.8582 38 9 25 38 8.29986 
26 38 8.70014 26.5 38 9 11 39 8.75834 
10.8303 39 9 25 39 8.29986 26 39 8.70014 
26.5 39 9 11 39.33 9 12 40 8.1241 
11.3902 40 9 25 40 8.34207 26 40 8.83028 
26.2835 40 9 12 40.6098 9 13 41 8.5 
12.5248 41 9 25 41 8.64671 25.4752 41 9 
26 40.33 9 13 41.327 9 14 41.6912 9 
15 41.6471 9 16 41.7681 9 16 42 8.05609 
16.5866 42 9 24 42 8.68277 24.3338 42 9 
25 41.4287 9 17 42.1697 9 18 42.3529 9 
19 42.457 9 20 42.5 9 21 42.5 9 
22 42.5 9 23 42.457 9 24 42.2071 9 
14 30 9.81728 14 29.7806 10 13.7101 30 10 
15 30 9.55394 15 29.5183 10 16 30 9.5 
16 29.5 10 17 30 9.55394 17 29.5 10 
18 30 9.65793 18 29.5218 10 19 30 9.70014 
19 29.5688 10 20 30 9.92895 20 29.9015 10 
20.1036 30 10 13 31 9.75102 13 30.6332 10 
12.6332 31 10 14 31 9.27344 18 31 9.16972 
19 31 9.29986 20 31 9.5 20.8353 31 10 
12 32 9.81728 12 31.7101 10 11.7806 32 10 
13 32 9.24898 21 32 9.31173 21 31.1404 10 
22 32 9.68827 22 31.6465 10 22.617 32 10 
12 33 9.408 11.4617 33 10 23 33 9.3763 
23 32.2291 10 24 33 9.81728 24 32.7709 10 
24.383 33 10 11.2104 34 10 24 34 9.21041 
25 33.3535 10 25 34 9.5 26 34 9.81728 
26 33.7806 10 26.33 34 10 11 35 9.75834 
11 34.5438 10 10.8303 35 10 26 35 9.27344 
27 34.5576 10 27 35 9.72656 27.5 35 10 
11 36 9.56331 10.6579 36 10 27 36 9.39552 
28 35.617 10 28 36 9.83028 28.2417 36 10 
11 37 9.35354 10.5 37 10 27 37 9.29986 
28 37 9.64707 28.5643 37 10 10.3955 38 10 
27 38 9.29986 28 38 9.58877 28.7975 38 10 
10.5 39 10 27 39 9.29986 28 39 9.66641 
28.4909 39 10 11 40 9.71531 10.8582 40 10 
27 40 9.40778 27.9918 40 10 28 39.986 10 
11 40.1851 10 12 41 9.71531 11.8149 41 10 
26 41 9.42437 26.9891 41 10 27 40.9918 10 
12 41.1418 10 13 41.5 10 14 41.5975 10 
15 41.543 10 16 41.543 10 17 41.6471 10 
17 42 9.29986 18 41.8303 10 18 42 9.70014 
18.5 42 10 25 42 9.75195 25.2152 42 10 
26 41.4832 10 19 42.1697 10 20 42.2999 10 
21 42.2999 10 22 42.2999 10 23 42.3529 10 
24 42.4112 10 25 42.1418 10 18 28 10.9844 
18 27.9768 11 17.9222 28 11 18.0778 28 11 
14 29 10.7148 14 28.7034 11 13.614 29 11 
15 29 10.5 15 28.4367 11 16 29 10.5 
16 28.4134 11 17 29 10.4461 17 28.2417 11 
18 29 10.3875 19 28.2417 11 19 29 10.4461 
20 29 10.7148 20 28.6749 11 20.386 29 11 
13 30 10.5204 13 29.5 11 12.5 30 11 
21 30 10.6467 21 29.5512 11 21.5329 30 11 
12 31 10.5204 12 30.5 11 11.5204 31 11 
21 31 10.1107 22 30.3535 11 22 31 10.5 
23 31 10.8173 23 30.7806 11 23.2899 31 11 
11 32 10.7806 11 31.7101 11 10.8173 32 11 
23 32 10.1827 24 31.5713 11 24 32 10.6467 
24.5 32 11 11 33 10.5 10.5539 33 11 
25 33 10.3238 25 32.3533 11 26 33 10.7806 
26 32.8173 11 26.33 33 11 11 34 10.2753 
10.4461 34 11 27 34 10.3902 27 33.3902 11 
28 34 10.9651 28 33.9665 11 28.0413 34 11 
10.3421 35 11 28 35 10.2827 28.9926 35 11 
10.1697 36 11 29 36 10.6454 29 35.0173 11 
29.2782 36 11 10 37 10.7466 10 36.5 11 
9.83028 37 11 29 37 10.4164 29.3955 37 11 
10 38 10.7165 9.83028 38 11 29 38 10.1811 
29.5088 38 11 10 38.4134 11 10.2319 39 11 
29 39 10.6509 29.2104 39 11 10.6579 40 11 
28 40 10.0128 28.4266 40 11 29 39.2753 11 
11 40.4367 11 11.5866 41 11 27 41 10.0497 
27.1562 41 11 28 40.4266 11 12 41.2999 11 
13 41.5 11 14 41.457 11 15 41.3529 11 
16 41.2999 11 17 41.2999 11 18 41.3421 11 
19 41.4461 11 19 42 10.2417 20 41.5 11 
20 42 10.4134 21 41.5 11 21 42 10.4134 
22 41.5 11 22 42 10.4134 23 41.6883 11 
23 42 10.5917 23.666 42 11 25.1166 42 11 
26 41.5 11 27 41.1025 11 24 42.1418 11 
25 42.071 11 15 27 11.8303 15 26.7583 12 
14.617 27 12 16 27 11.7001 16 26.5866 12 
17 27 11.6579 17 26.5633 12 18 27 11.6037 
18 26.538 12 19 27 11.6579 19 26.5633 12 
20 27 11.929 20 26.9015 12 20.1036 27 12 
14 28 11.6237 14 27.4424 12 13.4752 28 12 
15 28 11.3421 16 28 11.2999 17 28 11.1697 
19 28 11.1697 20 28 11.5 20.7466 28 12 
13 29 11.5 13 28.4488 12 12.5 29 12 
21 29 11.4796 21 28.2899 12 21.7101 29 12 
12 30 11.5 12 29.5 12 11.5 30 12 
22 30 11.3117 22 29.2194 12 23 30 11.7148 
23 29.7034 12 23.3668 30 12 11 31 11.5713 
11 30.5512 12 10.6467 31 12 24 31 11.5713 
24 30.5713 12 24.3533 31 12 10.1827 32 12 
25 32 11.5329 25 31.6762 12 25.3721 32 12 
10 33 11.6607 10 32.383 12 9.68826 33 12 
26 32.4413 12 26.9697 33 12 10 34 11.4817 
9.5 34 12 27 33.0212 12 28 33.737 12 
28.3114 34 12 10 35 11.4367 9.5 35 12 
29 34.6454 12 29 35 11.0173 29.2782 35 12 
10 36 11.2534 9.5 36 12 29.5 36 12 
9.5 37 12 29.5975 37 12 9.54296 38 12 
29.681 38 12 10 39 11.5866 9.83028 39 12 
29.1689 39 12 10 39.2417 12 10.5734 40 12 
28.0413 40 12 29 39.1773 12 11 40.4266 12 
11.8438 41 12 15 41 11.662 14.4562 41 12 
15 40.7896 12 16 40.5539 12 16 41 11.4312 
17 40.5 12 17 41 11.4134 18 40.4817 12 
18 41 11.4367 19 40.4367 12 19 41 11.4817 
20 40.4134 12 20 41 11.5 21 40.4367 12 
21 41 11.5 22 40.4817 12 22 41 11.5 
23 40.6607 12 23 41 11.6883 23.666 41 12 
26 41 11.6465 25.334 41 12 26 40.6607 12 
27 40.4266 12 27 41 11.1562 28 40.0335 12 
12 41.1025 12 13 41.2999 12 14 41.1697 12 
24 41.1851 12 24 42 11.1851 25 41.1851 12 
25 42 11.0985 14 26 12.7896 14 25.7247 13 
13.5435 26 13 15 26 12.5539 15 25.5183 13 
16 26 12.5 16 25.5 13 17 26 12.5 
17 25.5 13 18 26 12.5 18 25.5 13 
19 26 12.5183 19 25.5539 13 20 26 12.8596 
20 25.8893 13 20.1404 26 13 13 27 12.7896 
13 26.5435 13 12.712 27 13 14 27 12.2734 
21 27 12.7709 21 26.7806 13 21.2194 27 13 
13 28 12.3533 12.2291 28 13 21 28 12.1894 
22 27.7806 13 22 28 12.8106 22.2746 28 13 
12 29 12.4796 12 28.2899 13 11.3668 29 13 
22 29 12.1827 23 28.5896 13 23 29 12.6467 
23.4287 29 13 11 30 12.4796 11 29.3668 13 
10.4287 30 13 24 30 12.6332 24 29.6332 13 
24.249 30 13 10 31 12.7034 10 30.5643 13 
9.70337 31 13 24.7896 31 13 10 32 12.2194 
9.25098 32 13 25 31.2753 13 25.5734 32 13 
9 33 12.7806 9 32.5438 13 8.81728 33 13 
26 32.4266 13 26.6607 33 13 9 34 12.5866 
8.70014 34 13 27 33.3117 13 28 34 12.5866 
27.7806 34 13 9 35 12.5866 8.70014 35 13 
28 34.1827 13 29 34.92 13 29.0736 35 13 
9 36 12.7466 8.83028 36 13 29.457 36 13 
9 36.5 13 9.16972 37 13 29.4857 37 13 
9.35292 38 13 29.176 38 13 9.65793 39 13 
19 39 12.8582 18.666 39 13 19 38.8064 13 
20 38.5455 13 20 39 12.7001 21 38.7466 13 
21 39 12.8303 21.4562 39 13 28 39 12.8106 
27.617 39 13 28 38.7806 13 29 38.1936 13 
29 39 12.1936 10 39.4367 13 10.5633 40 13 
16 40 12.7247 15.5 40 13 16 39.7896 13 
17 39.5539 13 17 40 12.5183 18 39.3393 13 
18 40 12.4461 19 40 12.3421 20 40 12.2999 
21 40 12.3421 22 39.2753 13 22 40 12.4461 
23 39.5 13 23 40 12.5539 24 39.5633 13 
24 40 12.6579 25 39.5633 13 25 40 12.6579 
26 39.5183 13 26 40 12.5539 27 39.3393 13 
[...]
POINT_DATA 2750
SCALARS scalars unsigned_short
LOOKUP_TABLE default
1 1 1 1 1 1 1 1 1 
1 1 1 1 1 1 1 1 1 
1 1 1 1 1 1 1 1 1 
1 1 1 1 1 1 1 1 1 
1 1 1 1 1 1 1 1 1 
1 1 1 1 1 1 1 1 1 
1 1 1 1 1 1 1 1 1 
1 1 1 1 1 1 1 1 1 
1 1 1 1 1 1 1 1 1 
1 1 1 1 1 1 1 1 1 
1 1 1 1 1 1 1 1 1 
1 1 1 1 1 1 1 1 1 
1 1 1 1 1 1 1 1 1 
1 1 1 1 1 1 1 1 1 
1 1 1 1 1 1 1 1 1 
1 1 1 1 1 1 1 1 1 
1 1 1 1 1 1 1 1 1 
1 1 1 1 1 1 1 1 1 
1 1 1 1 1 1 1 1 1 
1 1 1 1 1 1 1 1 1 
1 1 1 1 1 1 1 1 1 
1 1 1 1 1 1 1 1 1 
1 1 1 1 1 1 1 1 1 
1 1 1 1 1 1 1 1 1 
1 1 1 1 1 1 1 1 1 
1 1 1 1 1 1 1 1 1 
1 1 1 1 1 1 1 1 1 
1 1 1 1 1 1 1 1 1 
1 1 1 1 1 1 1 1 1 
1 1 1 1 1 1 1 1 1 
1 1 1 1 1 1 1 1 1 
1 1 1 1 1 1 1 1 1 
1 1 1 1 1 1 1 1 1 
1 1 1 1 1 1 1 1 1 
1 1 1 1 1 1 1 1 1 
1 1 1 1 1 1 1 1 1 
1 1 1 1 1 1 1 1 1 
1 1 1 1 1 1 1 1 1 
1 1 1 1 1 1 1 1 1 
1 1 1 1 1 1 1 1 1 
1 1 1 1 1 1 1 1 1 
1 1 1 1 1 1 1 1 1 
1 1 1 1 1 1 1 1 1 
1 1 1 1 1 1 1 1 1 
1 1 1 1 1 1 1 1 1 
1 1 1 1 1 1 1 1 1 
1 1 1 1 1 1 1 1 1 
1 1 1 1 1 1 1 1 1 
1 1 1 1 1 1 1 1 1 
1 1 1 1 1 1 1 1 1 
1 1 1 1 1 1 1 1 1 
1 1 1 1 1 1 1 1 1 
1 1 1 1 1 1 1 1 1 
1 1 1 1 1 1 1 1 1 
1 1 1 1 1 1 1 1 1 
1 1 1 1 1 1 1 1 1 
1 1 1 1 1 1 1 1 1 
1 1 1 1 1 1 1 1 1 
1 1 1 1 1 1 1 1 1 
1 1 1 1 1 1 1 1 1 
1 1 1 1 1 1 1 1 1 
1 1 1 1 1 1 1 1 1 
1 1 1 1 1 1 1 1 1 
1 1 1 1 1 1 1 1 1 
1 1 1 1 1 1 1 1 1 
1 1 1 1 1 1 1 1 1 
1 1 1 1 1 1 1 1 1 
1 1 1 1 1 1 1 1 1 
1 1 1 1 1 1 1 1 1 
1 1 1 1 1 1 1 1 1 
1 1 1 1 1 1 1 1 1 
1 1 1 1 1 1 1 1 1 
1 1 1 1 1 1 1 1 1 
1 1 1 1 1 1 1 1 1 
1 1 1 1 1 1 1 1 1 
1 1 1 1 1 1 1 1 1 
1 1 1 1 1 1 1 1 1 
1 1 1 1 1 1 1 1 1 
1 1 1 1 1 1 1 1 1 
1 1 1 1 1 1 1 1 1 
1 1 1 1 1 1 1 1 1 
1 1 1 1 1 1 1 1 1 
1 1 1 1 1 1 1 1 1 
1 1 1 1 1 1 1 1 1 
1 1 1 1 1 1 1 1 1 
1 1 1 1 1 1 1 1 1 
1 1 1 1 1 1 1 1 1 
1 1 1 1 1 1 1 1 1 
1 1 1 1 1 1 1 1 1 
1 1 1 1 1 1 1 1 1 
1 1 1 1 1 1 1 1 1 
1 1 1 1 1 1 1 1 1 
1 1 1 1 1 1 1 1 1 
1 1 1 1 1 1 1 1 1 
1 1 1 1 1 1 1 1 1 
1 1 1 1 1 1 1 1 1 
1 1 1 1 1 1 1 1 1 
1 1 1 1 1 1 1 1 1 
1 1 1 1 1 1 1 1 1 
1 1 1 1 1 1 1 1 1 
1 1 1 1 1 1 1 1 1 
1 1 1 1 1 1 1 1 1 
1 1 1 1 1 1 1 1 1 
1 1 1 1 1 1 1 1 1 
1 1 1 1 1 1 1 1 1 
1 1 1 1 1 1 1 1 1 
1 1 1 1 1 1 1 1 1 
1 1 1 1 1 1 1 1 1 
1 1 1 1 1 1 1 1 1 
1 1 1 1 1 1 1 1 1 
1 1 1 1 1 1 1 1 1 
1 1 1 1 1 1 1 1 1 
1 1 1 1 1 1 1 1 1 
1 1 1 1 1 1 1 1 1 
1 1 1 1 1 1 1 1 1 
1 1 1 1 1 1 1 1 1 
1 1 1 1 1 1 1 1 1 
1 1 1 1 1 1 1 1 1 
1 1 1 1 1 1 1 1 1 
1 1 1 1 1 1 1 1 1 
1 1 1 1 1 1 1 1 1 
1 1 1 1 1 1 1 1 1 
1 1 1 1 1 1 1 1 1 
1 1 1 1 1 1 1 1 1 
1 1 1 1 1 1 1 1 1 
1 1 1 1 1 1 1 1 1 
1 1 1 1 1 1 1 1 1 
1 1 1 1 1 1 1 1 1 
1 1 1 1 1 1 1 1 1 
1 1 1 1 1 1 1 1 1 
1 1 1 1 1 1 1 1 1 
1 1 1 1 1 1 1 1 1 
1 1 1 1 1 1 1 1 1 
1 1 1 1 1 1 1 1 1 
1 1 1 1 1 1 1 1 1 
1 1 1 1 1 1 1 1 1 
1 1 1 1 1 1 1 1 1 
1 1 1 1 1 1 1 1 1 
1 1 1 1 1 1 1 1 1 
1 1 1 1 1 1 1 1 1 
1 1 1 1 1 1 1 1 1 
1 1 1 1 1 1 1 1 1 
1 1 1 1 1 1 1 1 1 
1 1 1 1 1 1 1 1 1 
1 1 1 1 1 1 1 1 1 
1 1 1 1 1 1 1 1 1 
1 1 1 1 1 1 1 1 1 
1 1 1 1 1 1 1 1 1 
1 1 1 1 1 1 1 1 1 
1 1 1 1 1 1 1 1 1 
1 1 1 1 1 1 1 1 1 
1 1 1 1 1 1 1 1 1 
1 1 1 1 1 1 1 1 1 
1 1 1 1 1 1 1 1 1 
1 1 1 1 1 1 1 1 1 
1 1 1 1 1 1 1 1 1 
1 1 1 1 1 1 1 1 1 
1 1 1 1 1 1 1 1 1 
1 1 1 1 1 1 1 1 1 
1 1 1 1 1 1 1 1 1 
1 1 1 1 1 1 1 1 1 
1 1 1 1 1 1 1 1 1 
1 1 1 1 1 1 1 1 1 
1 1 1 1 1 1 1 1 1 
1 1 1 1 1 1 1 1 1 
1 1 1 1 1 1 1 1 1 
1 1 1 1 1 1 1 1 1 
1 1 1 1 1 1 1 1 1 
1 1 1 1 1 1 2 2 2 
2 2 2 2 2 2 2 2 2 
2 2 2 2 2 2 2 2 2 
2 2 2 2 2 2 2 2 2 
2 2 2 2 2 2 2 2 2 
2 2 2 2 2 2 2 2 2 
2 2 2 2 2 2 2 2 2 
2 2 2 2 2 2 2 2 2 
2 2 2 2 2 2 2 2 2 
2 2 2 2 2 2 2 2 2 
2 2 2 2 2 2 2 2 2 
2 2 2 2 2 2 2 2 2 
2 2 2 2 2 2 2 2 2 
2 2 2 2 2 2 2 2 2 
2 2 2 2 2 2 2 2 2 
2 2 2 2 2 2 2 2 2 
2 2 2 2 2 2 2 2 2 
2 2 2 2 2 2 2 2 2 
2 2 2 2 2 2 2 2 2 
2 2 2 2 2 2 2 2 2 
2 2 2 2 2 2 2 2 2 
2 2 2 2 2 2 2 2 2 
2 2 2 2 2 2 2 2 2 
2 2 2 2 2 2 2 2 2 
2 2 2 2 2 2 2 2 2 
2 2 2 2 2 2 2 2 2 
2 2 2 2 2 2 2 2 2 
2 2 2 2 2 2 2 2 2 
2 2 2 2 2 2 2 2 2 
2 2 2 2 2 2 2 2 2 
2 2 2 2 2 2 2 2 2 
2 2 2 2 2 2 2 2 2 
2 2 2 2 2 2 2 2 2 
2 2 2 2 2 2 2 2 2 
2 2 2 2 2 2 2 2 2 
2 2 2 2 2 2 2 2 2 
2 2 2 2 2 2 2 2 2 
2 2 2 2 2 2 2 2 2 
2 2 2 2 2 2 2 2 2 
2 2 2 2 2 2 2 2 2 
2 2 2 2 2 2 2 2 2 
2 2 2 2 2 2 2 2 2 
2 2 2 2 2 2 2 2 2 
2 2 2 2 2 2 2 2 2 
2 2 2 2 2 2 2 2 2 
2 2 2 2 2 2 2 2 2 
2 2 2 2 2 2 2 2 2 
2 2 2 2 2 2 2 2 2 
2 2 2 2 2 2 2 2 2 
2 2 2 2 2 2 2 2 2 
2 2 2 2 2 2 2 2 2 
2 2 2 2 2 2 2 2 2 
2 2 2 2 2 2 2 2 2 
2 2 2 2 2 2 2 2 2 
2 2 2 2 2 2 2 2 2 
2 2 2 2 2 2 2 2 2 
2 2 2 2 2 2 2 2 2 
2 2 2 2 2 2 2 2 2 
2 2 2 2 2 2 2 2 2 
2 2 2 2 2 2 2 2 2 
2 2 2 2 2 2 2 2 2 
2 2 2 2 2 2 2 2 2 
2 2 2 2 2 2 2 2 2 
2 2 2 2 2 2 2 2 2 
2 2 2 2 2 2 2 2 2 
2 2 2 2 2 2 2 2 2 
2 2 2 2 2 2 2 2 2 
2 2 2 2 2 2 2 2 2 
2 2 2 2 2 2 2 2 2 
2 2 2 2 2 2 2 2 2 
2 2 2 2 2 2 2 2 2 
2 2 2 2 2 2 2 2 2 
2 2 2 2 2 2 2 2 2 
2 2 2 2 2 2 2 2 2 
2 2 2 2 2 2 2 2 2 
2 2 2 2 2 2 2 2 2 
2 2 2 2 2 2 2 2 2 
2 2 2 2 2 2 2 2 2 
2 2 2 2 2 2 2 2 2 
2 2 2 2 2 2 2 2 2 
2 2 2 2 2 2 2 2 2 
2 2 2 2 2 2 2 2 2 
2 2 2 2 2 2 2 2 2 
2 2 2 2 2 2 2 2 2 
2 2 2 2 2 2 2 2 2 
2 2 2 2 2 2 2 2 2 
2 2 2 2 2 2 2 2 2 
2 2 2 2 2 2 2 2 2 
2 2 2 2 2 2 2 2 2 
2 2 2 2 2 2 2 2 2 
2 2 2 2 2 2 2 2 2 
2 2 2 2 2 2 2 2 2 
2 2 2 2 2 2 2 2 2 
2 2 2 2 2 2 2 2 2 
2 2 2 2 2 2 2 2 2 
2 2 2 2 2 2 2 2 2 
2 2 2 2 2 2 2 2 2 
2 2 2 2 2 2 2 2 2 
2 2 2 2 2 2 2 2 2 
2 2 2 2 2 2 2 2 2 
2 2 2 2 2 2 2 2 2 
2 2 2 2 2 2 2 2 2 
2 2 2 2 2 2 2 2 2 
2 2 2 2 2 2 2 2 2 
2 2 2 2 2 2 2 2 2 
2 2 2 2 2 2 2 2 2 
2 2 2 2 2 2 2 2 2 
2 2 2 2 2 2 2 2 2 
2 2 2 2 2 2 2 2 2 
2 2 2 2 2 2 2 2 2 
2 2 2 2 2 2 2 2 2 
2 2 2 2 2 2 2 2 2 
2 2 2 2 2 2 2 2 2 
2 2 2 2 2 2 2 2 2 
2 2 2 2 2 2 2 2 2 
2 2 2 2 2 2 2 2 2 
2 2 2 2 2 2 2 2 2 
2 2 2 2 2 2 2 2 2 
2 2 2 2 2 2 2 2 2 
2 2 2 2 2 2 2 2 2 
2 2 2 2 2 2 2 2 2 
2 2 2 2 2 2 2 2 2 
2 2 2 2 2 2 2 2 2 
2 2 2 2 2 2 2 2 2 
2 2 2 2 2 2 2 2 2 
2 2 2 2 2 2 2 2 2 
2 2 2 2 2 2 2 2 2 
2 2 2 2 2 2 2 2 2 
2 2 2 2 2 2 2 2 2 
2 2 2 2 2 2 2 2 2 
2 2 2 2 2 2 2 2 2 
2 2 2 2 2 2 2 2 2 
2 2 2 2 2 2 2 2 2 
2 2 2 2 2 2 2 2 2 
2 2 2 2 2 2 2 2 2 
2 2 2 2 2 2 2 2 2 
2 2 2 2 2 2 2 2 2 
2 2 2 2 2 
NORMALS normals float
-0.339222 -0.339222 -0.877415 -0.303691 -0.351753 -0.885461 -0.351753 -0.303691 -0.885461 
0 -0.417715 -0.908578 0 -0.46897 -0.883214 0.339222 -0.339222 -0.877415 
0.305465 -0.360188 -0.881451 0.360188 -0.305465 -0.881451 -0.417637 -0.0193476 -0.908408 
-0.468911 0.0158411 -0.883104 0 -0.0905643 -0.995891 0.415649 -0.0993378 -0.904084 
0.467745 -0.0722072 -0.880909 -0.46695 0.339289 -0.816603 -0.486594 0.345488 -0.802412 
-0.0733034 0.225949 -0.971377 0.386885 0.150248 -0.909805 0.450923 0.138458 -0.881758 
-0.487815 0.409725 -0.770819 -0.225422 0.687663 -0.690148 -0.203863 0.684412 -0.700014 
0.0255744 0.678027 -0.734592 0.317736 0.569817 -0.757861 -0.204478 0.699922 -0.684323 
-0.25602 -0.428796 -0.866364 -0.223197 -0.433381 -0.873135 -0.323691 -0.402771 -0.856154 
-0.0683194 -0.416739 -0.906455 -0.0552136 -0.46205 -0.885134 0.0683194 -0.416739 -0.906455 
0.0550105 -0.468259 -0.881877 0.225585 -0.432146 -0.873133 0.19894 -0.447649 -0.871799 
0.250664 -0.447982 -0.858184 -0.462844 -0.251214 -0.850099 -0.451068 -0.292618 -0.843156 
-0.507548 -0.238367 -0.827995 -0.184491 -0.184491 -0.965363 -0.0282399 -0.146401 -0.988822 
0.0279361 -0.205845 -0.978186 0.0909205 -0.293916 -0.951497 0.242744 -0.443117 -0.862973 
0.159929 -0.407996 -0.898867 0.283343 -0.440724 -0.851751 0.264744 -0.441031 -0.857556 
0.316344 -0.411179 -0.854903 -0.426559 -0.0679762 -0.901902 -0.510955 -0.079096 -0.855961 
-0.146401 -0.0282399 -0.988822 -0.0946945 -0.0946945 -0.990992 -0.0995389 -0.316952 -0.943204 
0 -0.43661 -0.899651 0.120903 -0.384981 -0.914971 0.26349 -0.263489 -0.92798 
0.411179 -0.316344 -0.854903 0.440724 -0.283343 -0.851751 0.437304 -0.265282 -0.859297 
-0.416369 0.0802209 -0.90565 -0.486767 0.0791108 -0.869942 -0.205845 0.0279361 -0.978186 
-0.316952 -0.0995389 -0.943204 0.384981 -0.120903 -0.914971 0.407996 -0.159929 -0.898867 
0.443117 -0.242744 -0.862973 -0.46695 0.339289 -0.816603 -0.489107 0.344933 -0.801121 
-0.297137 0.207547 -0.932005 -0.435277 0.0780838 -0.896904 0.4364 -0.0310292 -0.899218 
0.294561 -0.0625038 -0.953586 0.451853 -0.215792 -0.8656 0.438088 -0.156868 -0.885139 
0.456464 -0.132975 -0.879749 -0.487599 0.406524 -0.772649 -0.428226 0.598215 -0.677319 
-0.41803 0.587687 -0.69273 -0.4677 0.441498 -0.765726 0.43187 0.146958 -0.889883 
0.289759 0.190045 -0.938042 0.441212 0.241522 -0.864291 0.467859 0.234727 -0.852063 
-0.42164 0.613409 -0.667794 -0.465471 0.671877 -0.576123 -0.443328 0.745916 -0.497062 
-0.441993 0.778995 -0.444756 0.291509 0.637948 -0.712773 0.327055 0.6564 -0.679834 
0.325568 0.661006 -0.676074 0.330449 0.662887 -0.671852 0.448999 0.358215 -0.818585 
-0.393854 0.825913 -0.403419 -0.126655 0.966154 -0.224734 0.098806 0.960988 -0.25834 
0.220754 0.827243 -0.516658 0.32171 0.677018 -0.661929 -0.322619 -0.491756 -0.80876 
-0.331067 -0.525366 -0.783828 -0.380905 -0.513346 -0.769017 -0.0798187 -0.426184 -0.901109 
-0.103334 -0.509817 -0.854054 0.0683194 -0.416739 -0.906455 0.0543561 -0.487576 -0.871387 
0.224253 -0.443092 -0.867975 0.213711 -0.470186 -0.856302 0.23135 -0.47505 -0.849002 
-0.501823 -0.320484 -0.803407 -0.521592 -0.378692 -0.764548 -0.545717 -0.323921 -0.772831 
-0.192291 -0.219218 -0.956539 -0.0279361 -0.205845 -0.978186 0.0277661 -0.232358 -0.972234 
0.0909205 -0.293916 -0.951497 0.195791 -0.474875 -0.857998 0.0956561 -0.411421 -0.906412 
0.0983713 -0.434493 -0.895287 0.115476 -0.490918 -0.863519 0.224253 -0.443092 -0.867975 
0.213711 -0.470186 -0.856302 0.254101 -0.47227 -0.844034 -0.473163 -0.0999082 -0.875292 
-0.587346 -0.0901347 -0.804301 -0.205163 -0.181995 -0.961658 -0.0985199 -0.344647 -0.933548 
-0.0313368 -0.41751 -0.908132 0.0310292 -0.4364 -0.899218 0.0956561 -0.411421 -0.906412 
0.117378 -0.293098 -0.94885 0.118265 -0.2684 -0.95602 0.250157 -0.461175 -0.851316 
0.163218 -0.363076 -0.917353 0.296219 -0.434267 -0.850686 0.297211 -0.459556 -0.836943 
0.336984 -0.45079 -0.826578 -0.55047 -0.101242 -0.828694 -0.62538 -0.0851115 -0.775665 
-0.400776 -0.314219 -0.860607 0.25602 -0.428796 -0.866364 0.163218 -0.363076 -0.917353 
0.119137 -0.241477 -0.963066 0.18178 -0.210605 -0.960521 0.375597 -0.414636 -0.828857 
0.347345 -0.359887 -0.865929 0.375786 -0.383353 -0.843698 -0.596751 -0.163257 -0.785644 
-0.631962 -0.234137 -0.738785 0.324418 -0.324418 -0.888541 0.184592 -0.12066 -0.97538 
0.21157 -0.15545 -0.964922 0.42034 -0.315358 -0.850801 0.428796 -0.25602 -0.866364 
0.44867 -0.225699 -0.864728 -0.566438 -0.241969 -0.787782 -0.597518 -0.258636 -0.758999 
-0.594109 -0.246961 -0.765536 -0.538967 -0.102148 -0.83611 0.341606 -0.164634 -0.925311 
0.205604 -0.055807 -0.977043 0.416739 -0.0683194 -0.906455 0.487576 -0.0543561 -0.871387 
-0.559973 0.0804199 -0.824598 -0.643538 0.0993816 -0.758935 -0.495039 0.0830313 -0.864894 
0.428796 -0.25602 -0.866364 0.293916 -0.0909205 -0.951497 0.43661 0 -0.899651 
0.494209 0.00779683 -0.869308 -0.590986 0.422094 -0.687439 -0.564999 0.500675 -0.65582 
-0.494216 0.416317 -0.763172 0.432734 -0.0412318 -0.900578 0.483393 0.0772393 -0.871989 
0.528708 0.101955 -0.842658 -0.488977 0.60102 -0.6322 -0.464794 0.67043 -0.578351 
-0.470558 0.689615 -0.550459 0.473107 0.241867 -0.847154 0.531732 0.32495 -0.782093 
0.55172 0.335646 -0.763509 -0.415282 0.754235 -0.508596 -0.347185 0.901764 -0.257459 
-0.450258 0.890345 -0.0674775 -0.444313 0.894165 -0.055264 0.322819 0.729968 -0.602441 
0.382625 0.680417 -0.625004 0.396051 0.682273 -0.61453 0.539025 0.395336 -0.743749 
-0.445936 0.893639 -0.0505098 -0.259761 0.965469 0.019836 -0.0569151 0.996442 0.062157 
0 0.99996 -0.00896865 0.028346 0.992537 -0.118605 0.102192 0.968898 -0.225372 
0.203523 0.884627 -0.419539 0.372693 0.707616 -0.600316 -0.25192 -0.529765 -0.809867 
-0.239736 -0.557103 -0.795087 -0.315852 -0.521179 -0.79285 0 -0.528153 -0.849149 
0 -0.605281 -0.796012 0.213405 -0.521729 -0.825988 0.199196 -0.554636 -0.807898 
0.22422 -0.52217 -0.822839 -0.383321 -0.562562 -0.732523 -0.40972 -0.51334 -0.754063 
-0.456922 -0.514189 -0.725831 -0.151768 -0.531585 -0.833297 0.0300076 -0.492821 -0.869613 
0.169375 -0.475494 -0.86326 0.208963 -0.505271 -0.837279 0.169375 -0.475494 -0.86326 
0.128258 -0.488971 -0.862819 0.145476 -0.50719 -0.849468 0.262659 -0.522236 -0.811345 
0.276854 -0.52684 -0.803612 0.296732 -0.55448 -0.777497 -0.541427 -0.517462 -0.662639 
-0.510107 -0.504119 -0.696889 -0.602223 -0.464651 -0.649175 0.219318 -0.480947 -0.848876 
0.117025 -0.489655 -0.864027 0.168842 -0.480584 -0.860542 0.302935 -0.569653 -0.76402 
0.234959 -0.492717 -0.837869 0.328753 -0.539747 -0.77498 0.337177 -0.564149 -0.753689 
0.358664 -0.549646 -0.754486 -0.720435 -0.32479 -0.612768 -0.699782 -0.364387 -0.614433 
-0.740377 -0.328572 -0.586414 0.266666 -0.475098 -0.838553 0.277466 -0.468439 -0.838795 
0.39782 -0.510637 -0.762226 0.373058 -0.472398 -0.798541 0.362097 -0.509317 -0.780694 
-0.708868 -0.104576 -0.697546 -0.74839 -0.141437 -0.648003 0.369381 -0.445439 -0.815562 
0.320944 -0.514104 -0.795419 0.280102 -0.452253 -0.846765 0.306919 -0.469398 -0.827929 
0.30531 -0.505745 -0.80685 0.35253 -0.465181 -0.81199 -0.692163 -0.0856368 -0.716643 
-0.715514 -0.102267 -0.691073 0.362471 -0.376531 -0.852549 0.318157 -0.258949 -0.911988 
0.448443 -0.33577 -0.828346 0.45357 -0.264715 -0.850999 0.473822 -0.254738 -0.842972 
-0.654273 -0.258834 -0.710585 -0.710585 -0.258834 -0.654273 0.430062 -0.118267 -0.895019 
0.474889 -0.0661414 -0.877557 0.500202 -0.0616241 -0.863713 -0.77941 -0.204124 -0.592329 
-0.770311 -0.225268 -0.596552 -0.805296 -0.192181 -0.560861 0.492821 -0.0300076 -0.869613 
0.493043 0 -0.870005 0.500083 0 -0.865978 -0.815379 0.195732 -0.544836 
-0.844856 0.209813 -0.492135 0.492921 0.0222357 -0.86979 0.491987 0.0654317 -0.868141 
0.505977 0.0613849 -0.86036 -0.809452 0.318346 -0.493401 -0.587699 0.515061 -0.623956 
-0.698603 0.55668 -0.449513 0.531128 0.157202 -0.832581 0.49622 0.283174 -0.820718 
0.498305 0.277216 -0.821488 -0.590153 0.677173 -0.439495 -0.493961 0.715545 -0.493961 
-0.52259 0.742024 -0.419882 0.578585 0.436379 -0.689066 0.535415 0.500937 -0.679994 
0.504032 0.368963 -0.780908 -0.473673 0.80162 -0.364747 -0.174645 0.973772 -0.145832 
-0.0463164 0.997882 0.0456867 -0.2655 0.926833 0.2655 -0.439898 0.897452 -0.0326968 
-0.295592 0.883259 0.363976 0.469749 0.734632 -0.489542 0.47985 0.746046 -0.461691 
0.559267 0.559343 -0.611847 -0.289517 0.870311 0.398419 -0.164634 0.925311 0.341606 
-0.0934459 0.977926 0.186892 -0.028346 0.992537 0.118605 0 0.995891 0.0905643 
0.028542 0.999401 0.0195784 0.167263 0.97804 -0.124342 0.417343 0.816547 -0.398844 
-0.358176 -0.56843 -0.740673 -0.347053 -0.595765 -0.724306 -0.410645 -0.573174 -0.709114 
-0.141437 -0.648003 -0.74839 -0.102286 -0.682272 -0.723908 0 -0.690691 -0.72315 
-0.0075854 -0.707086 -0.707086 0.0771435 -0.647599 -0.758066 0.00765469 -0.664797 -0.746984 
0.0726397 -0.551491 -0.831012 0.0256131 -0.586365 -0.809642 0.125961 -0.515853 -0.847367 
0.120815 -0.581193 -0.804747 0.390864 -0.487259 -0.7809 0.389225 -0.502406 -0.77207 
0.411558 -0.485952 -0.771019 -0.477562 -0.481275 -0.735057 -0.501492 -0.513045 -0.696628 
-0.513045 -0.501492 -0.696628 -0.400551 -0.484463 -0.777724 0.215879 -0.505198 -0.835567 
0.164156 -0.486355 -0.858203 0.359027 -0.469183 -0.806825 0.438247 -0.503124 -0.744853 
-0.56132 -0.393797 -0.727904 -0.567818 -0.429063 -0.702487 -0.592713 -0.373536 -0.713556 
-0.47645 -0.481605 -0.735562 0.337228 -0.604607 -0.721614 0.427106 -0.529242 -0.733133 
0.338403 -0.62669 -0.701956 0.330946 -0.613401 -0.717087 0.357784 -0.596441 -0.718505 
-0.656301 -0.365273 -0.660185 -0.710748 -0.230387 -0.664649 0.397436 -0.56256 -0.724963 
0.368243 -0.581527 -0.725413 0.368233 -0.569768 -0.73469 0.369137 -0.582939 -0.723823 
0.359191 -0.598786 -0.715847 -0.778322 -0.268794 -0.567419 0.33673 -0.529377 -0.778699 
0.322993 -0.61992 -0.715105 0.275994 -0.581372 -0.765398 0.360558 -0.567872 -0.739945 
0.362368 -0.595537 -0.716956 0.387003 -0.569293 -0.725351 -0.79757 -0.227107 -0.558843 
-0.790949 -0.25615 -0.555686 -0.812242 -0.240757 -0.531318 0.409048 -0.434207 -0.802586 
0.438772 -0.490712 -0.752782 0.443043 -0.422804 -0.790538 0.456752 -0.433443 -0.776856 
-0.766697 -0.13938 -0.626697 -0.811719 -0.160794 -0.561477 0.470574 -0.220646 -0.854327 
0.50367 -0.343211 -0.792794 0.512292 -0.282416 -0.811048 0.549795 -0.283494 -0.78572 
-0.739702 -0.229068 -0.632747 -0.788691 -0.138156 -0.599066 0.475268 -0.0527581 -0.878258 
0.465408 -0.126822 -0.875963 0.606357 -0.178952 -0.774795 -0.87304 0.00913069 -0.487563 
0.454944 0 -0.89052 0.395037 0.0100248 -0.918611 0.642348 0.0317723 -0.765754 
-0.916251 0.241478 -0.319645 0.47897 0.0575741 -0.875941 0.498206 0.189139 -0.846178 
0.62624 0.287003 -0.724882 -0.772737 0.529283 -0.350338 -0.798783 0.516958 -0.307734 
0.510761 0.291552 -0.808777 0.665565 0.470765 -0.579141 0.665227 0.468185 -0.581615 
-0.770667 0.558585 -0.306684 -0.544376 0.767918 -0.337574 -0.560679 0.773556 -0.295381 
0.499659 0.622596 -0.602259 0.540392 0.728729 -0.420631 0.541413 0.726482 -0.423196 
-0.519764 0.803119 -0.291283 -0.253787 0.962957 -0.0911403 -0.0271132 0.988377 0.149586 
0.0349214 0.982681 0.181985 -0.0630112 0.961327 0.268103 -0.158347 0.889973 0.427638 
-0.267012 0.8649 0.425033 -0.246746 0.834981 0.491858 -0.239412 0.851129 0.467185 
-0.243253 0.832812 0.497245 0.500072 0.808319 -0.310723 0.486744 0.842456 -0.230971 
0.502745 0.797297 -0.334014 -0.219904 0.851144 0.47665 -0.0668558 0.887036 0.456835 
0 0.889025 0.457859 -0.030663 0.888607 0.457644 -0.0676325 0.934278 0.350073 
0.11035 0.993401 0.0312509 0.458505 0.860455 -0.22224 0 -0.557437 -0.830219 
0 -0.558203 -0.829705 -0.0120645 -0.557791 -0.829894 0.0182783 -0.557739 -0.829815 
-0.341803 -0.65441 -0.674477 -0.349747 -0.645222 -0.679239 -0.433641 -0.63271 -0.641586 
-0.0860936 -0.688126 -0.720465 -0.109834 -0.629046 -0.76957 -0.0246946 -0.69048 -0.72293 
-0.0655407 -0.603979 -0.7943 -0.0530001 -0.648622 -0.759263 -0.137201 -0.568411 -0.811225 
0 -0.588754 -0.808312 0.220268 -0.559743 -0.798855 0.140715 -0.626574 -0.766554 
0.377226 -0.619325 -0.688576 0.393279 -0.590487 -0.704739 0.455911 -0.597772 -0.659404 
-0.543336 -0.566253 -0.619793 -0.54886 -0.587473 -0.594666 -0.570253 -0.577321 -0.58439 
0.524147 -0.496422 -0.691979 0.523644 -0.54298 -0.656483 0.451772 -0.572629 -0.684104 
-0.571387 -0.540996 -0.617123 -0.582005 -0.567926 -0.582005 -0.611746 -0.536283 -0.581522 
0.433898 -0.514049 -0.739923 0.361863 -0.605979 -0.70841 0.301534 -0.592057 -0.747359 
0.378985 -0.576213 -0.724119 0.382179 -0.593719 -0.708122 0.427023 -0.584301 -0.690104 
-0.715116 -0.349259 -0.605497 -0.701206 -0.406065 -0.586022 -0.731848 -0.353909 -0.582363 
0.370004 -0.571026 -0.732821 0.493104 -0.587608 -0.641534 0.442234 -0.592203 -0.673591 
0.480813 -0.639321 -0.600073 -0.731752 -0.177757 -0.657983 -0.738933 -0.165239 -0.653202 
0.35227 -0.650118 -0.67324 0.447288 -0.691146 -0.567671 0.395215 -0.731181 -0.556039 
0.411648 -0.755738 -0.509319 0.427906 -0.751677 -0.501874 -0.773493 -0.232229 -0.589728 
-0.748573 -0.102101 -0.655144 0.434694 -0.598388 -0.673032 0.461424 -0.732962 -0.499855 
0.546141 -0.690031 -0.47496 0.547929 -0.696773 -0.462905 0.553269 -0.693241 -0.461855 
-0.8151 -0.133132 -0.563816 0.488329 -0.444321 -0.751075 0.741673 -0.443726 -0.503018 
-0.820148 -0.230346 -0.523735 0.765537 -0.216156 -0.605995 0.744539 -0.439195 -0.502762 
0.852817 -0.18914 -0.486754 -0.837467 -0.151957 -0.524936 -0.83092 -0.198321 -0.519846 
-0.859757 -0.15237 -0.487443 0.765251 -0.173468 -0.619919 0.893489 -0.130703 -0.429645 
-0.866176 0.153412 -0.475608 -0.874855 0.187545 -0.446604 0.730804 0.0506573 -0.680705 
0.920369 0.0905659 -0.380419 -0.861936 0.282604 -0.420952 -0.854887 0.398112 -0.33268 
0.802788 0.466121 -0.371837 0.837848 0.489929 -0.24079 -0.82537 0.548262 -0.134809 
0.668446 0.475393 -0.571998 0.725275 0.687208 -0.0414843 0.811233 0.548936 -0.201423 
-0.76423 0.639279 -0.0852901 -0.590498 0.807032 -0.00331628 0.544074 0.742833 -0.390107 
0.49917 0.837386 0.222741 0.66627 0.745337 0.023595 -0.457777 0.888865 0.0189314 
-0.0899298 0.988913 0.118172 0.0922503 0.965413 0.24386 0.0972521 0.921535 0.37592 