# vtk DataFile Version 4.0
vtk output
ASCII
DATASET POLYDATA
POINTS 2790 float
18 36 5.75712 18 35.1829 6 17.5614 36 6 
19 36 5.76808 19 35.5317 6 19.4683 36 6 
18 37 5.70014 17.5 37 6 19 37 5.54296 
20 36.617 6 20 37 5.83028 20.2835 37 6 
18 38 5.85824 17.7848 38 6 19 38 5.54296 
20 38 5.64708 20.7001 38 6 18 38.2342 6 
18.8717 39 6 19 39 5.92637 20 39 5.78146 
20.7957 39 6 19 39.08 6 20 39.2936 6 
16 33 6.83028 16 32.7165 7 15.5866 33 7 
17 33 6.70014 17 32.5 7 18 33 6.83028 
18 32.7165 7 18.383 33 7 15 34 6.83028 
15 33.5866 7 14.7001 34 7 16 34 6.54296 
17 34 6.45704 18 34 6.4453 19 33.5 7 
19 34 6.72656 19.5 34 7 15 35 6.70014 
14.5 35 7 16 35 6.5 17 35 6.35292 
18 35 6.06054 19 35 6.27344 20 34.5 7 
20 35 6.72656 20.5 35 7 15 36 6.70014 
14.5 36 7 16 36 6.5 17 36 6.29986 
20 36 6.27344 21 35.5 7 21 36 6.72656 
21.5 36 7 15 37 6.70014 14.5239 37 7 
16 37 6.5 17 37 6.29986 21 37 6.39552 
22 36.617 7 22 37 6.83028 22.2534 37 7 
15 37.896 7 15.1456 38 7 16 38 6.7742 
17 38 6.51684 21 38 6.16972 22 38 6.65793 
22.5 38 7 16 38.2435 7 17 38.5756 7 
18 39 6.6505 17.5886 39 7 21 39 6.06054 
22 39 6.60372 22.5493 39 7 18 39.249 7 
19 39.7266 7 20 40 6.75834 19.617 40 7 
21 40 6.64545 21.9827 40 7 22 39.9872 7 
20 40.1697 7 21 40.2782 7 16 31 7.83028 
16 30.7583 8 15.5438 31 8 17 31 7.70014 
17 30.5866 8 18 31 7.83028 18 30.7583 8 
18.383 31 8 13 32 7.83028 13 31.7583 8 
12.5438 32 8 14 32 7.70014 14 31.5688 8 
15 32 7.60448 15 31.3205 8 16 32 7.39552 
17 32 7.29986 18 32 7.39552 19 31.5 8 
19 32 7.72656 19.5 32 8 10 33 7.83028 
10 32.7583 8 9.68966 33 8 11 33 7.70014 
11 32.5688 8 12 33 7.64708 12 32.338 8 
13 33 7.54296 14 33 7.45704 15 33 7.23192 
19 33 7.27344 20 32.5 8 20 33 7.72656 
20.5 33 8 10 34 7.67908 9.44839 34 8 
11 34 7.4453 12 34 7.45704 13 34 7.5 
14 34 7.35292 20 34 7.27344 21 33.5 8 
21 34 7.72656 21.5 34 8 10 34.6164 8 
10.2804 35 8 11 35 7.42718 12 35 7.40246 
13 35 7.5 14 35 7.29986 21 35 7.27344 
22 34.5 8 22 35 7.72656 22.5 35 8 
11 35.9902 8 11.0128 36 8 12 36 7.6232 
13 36 7.54296 14 36 7.29986 22 36 7.27344 
23 35.5748 8 23 36 7.78959 23.288 36 8 
12 36.5124 8 12.7333 37 8 13 37 7.8533 
14 37 7.35307 23 37 7.5 23.712 37 8 
13 37.1851 8 13.9015 38 8 14 38 7.90146 
15 38 7.06776 23 38 7.34207 24 37.5438 8 
24 38 7.83028 24.2534 38 8 14 38.0736 8 
15 38.442 8 16 38.6471 8 17 39 7.67001 
16.7001 39 8 23 39 7.29986 24 39 7.70014 
24.4545 39 8 17 39.1697 8 18 39.6045 8 
19 40 7.61703 18.7165 40 8 22 40 7.00821 
23 40 7.55394 24 40 7.92895 24.1036 40 8 
19 40.1697 8 20 40.457 8 21 40.543 8 
22 40.5922 8 23 40.5 8 24 40.0985 8 
15 30 8.78959 15 29.7247 9 14.4562 30 9 
16 30 8.55394 16 29.5 9 17 30 8.5 
17 29.4582 9 18 30 8.55394 18 29.5 9 
19 30 8.81728 19 29.7806 9 19.33 30 9 
12 31 8.78959 12 30.662 9 11.5 31 9 
13 31 8.55394 13 30.4312 9 14 31 8.44606 
14 30.2417 9 15 31 8.21041 19 31 8.27344 
20 30.5576 9 20 31 8.72656 20.5 31 9 
9 32 8.85789 9 31.8024 9 8.80241 32 9 
10 32 8.55394 10 31.5 9 11 32 8.44606 
11 31.2753 9 12 32 8.21041 20 32 8.27344 
21 31.5 9 21 32 8.72656 21.5 32 9 
9 33 8.44657 8.51684 33 9 21 33 8.27344 
22 32.5 9 22 33 8.72656 22.4424 33 9 
9 34 8.44839 8.67908 34 9 22 34 8.27344 
23 33.5886 9 23 34 8.75102 23.3495 34 9 
9 34.4629 9 10 35 8.34911 9.5 35 9 
23 35 8.27344 24 34.8198 9 24 35 8.88508 
24.1149 35 9 10 35.43 9 11 36 8.01284 
10.5579 36 9 24 36 8.51684 24.5756 36 9 
11 36.4266 9 12 37 8.65089 11.7247 37 9 
24 37 8.21041 25 36.67 9 25 37 8.81728 
25.2291 37 9 12 37.2104 9 13 37.7896 9 
13.338 38 9 25 38 8.5 25.712 38 9 
14 38.3529 9 15 38.5 9 16 38.6471 9 
16.7001 39 9 25 39 8.38752 25.9712 39 9 
17 39.1697 9 18 39.6045 9 18.7165 40 9 
25 40 8.64671 25.4287 40 9 19 40.1697 9 
20 40.457 9 21 40.5975 9 22 40.869 9 
23 41 8.81311 22.5649 41 9 24 41 8.90146 
24.137 41 9 25 40.4287 9 23 41.1025 9 
24 41.071 9 11 29 9.89748 11 28.8008 10 
10.8008 29 10 12 29 9.70014 12 28.5 10 
13 29 9.70014 13 28.5 10 14 29 9.65793 
14 28.5 10 15 29 9.55394 15 28.5 10 
16 29 9.44606 16 28.3393 10 17 29 9.38752 
17 28.0288 10 18 29 9.44606 18 28.2753 10 
19 29 9.68827 19 28.6465 10 19.617 29 10 
11 30 9.60448 10.1869 30 10 12 30 9.35293 
13 30 9.29986 14 30 9.16972 20 30 9.3763 
20 29.2291 10 21 30 9.81728 21 29.7709 10 
21.2899 30 10 9 31 9.55394 9 30.4312 10 
8.01188 31 10 10 31 9.44606 10 30.1562 10 
11 31 9.21041 21 31 9.27344 22 30.6332 10 
22 31 9.75102 22.3495 31 10 8 32 9.64545 
8 31.0173 10 7.72183 32 10 22 32 9.27344 
23 31.8198 10 23 32 9.88508 23.1149 32 10 
8 33 9.74658 7.83028 33 10 23 33 9.39018 
23.6098 33 10 8 33.383 10 8.27344 34 10 
24 34 9.6505 24 33.5886 10 24.249 34 10 
9 35 9.79281 8.88508 35 10 24.751 35 10 
9 35.1149 10 10 35.7896 10 10.2753 36 10 
25 35.3668 10 25 36 9.45321 25.5713 36 10 
11 36.5539 10 11.5197 37 10 26 37 9.6237 
26 36.4752 10 26.5 37 10 12 37.3963 10 
13 38 9.93392 12.9768 38 10 26 38 9.21041 
27 37.67 10 27 38 9.81728 27.2194 38 10 
13 38.0156 10 14 38.4112 10 15 38.5 10 
16 38.543 10 17 38.7681 10 17 39 9.41336 
17.4683 39 10 26 39 9.02119 27 39 9.76415 
27.2565 39 10 18 39.2734 10 19 39.7266 10 
19 40 9.38297 19.5317 40 10 26 40 9.59803 
26.402 40 10 27 39.3338 10 20 40.2319 10 
21 40.5 10 22 40.6471 10 23 40.8303 10 
23 41 9.3674 23.6326 41 10 24.5244 41 10 
25 40.9007 10 26 40.3032 10 24 41.1025 10 
10 27 10.8303 10 26.7583 11 9.61703 27 11 
11 27 10.7001 11 26.5866 11 12 27 10.7001 
12 26.5866 11 13 27 10.7001 13 26.5866 11 
14 27 10.8582 14 26.8149 11 14.334 27 11 
17 27 10.7642 17 26.7435 11 16.5363 27 11 
18 27 10.8173 18 26.7806 11 18.383 27 11 
9 28 10.7681 9 27.5317 11 8.53167 28 11 
10 28 10.5 11 28 10.3529 12 28 10.2999 
13 28 10.2999 14 28 10.3421 15 27.3393 11 
15 28 10.4461 16 28 10.3117 16 27.2852 11 
17 28 10.0212 18 28 10.2104 19 27.3535 11 
19 28 10.5 20 28 10.8173 20 27.7806 11 
20.33 28 11 8 29 10.8303 8 28.617 11 
7.75834 29 11 9 29 10.543 10 29 10.3529 
20 29 10.1827 21 28.5 11 21 29 10.6237 
21.5886 29 11 8 30 10.5539 7.5 30 11 
9 30 10.2999 10 30 10.1025 22 30 10.5 
22 29.3668 11 22.5468 30 11 8 31 10.0078 
7.35307 31 11 23 31 10.6505 23 30.5886 11 
23.249 31 11 7.35292 32 11 23.751 32 11 
7.5 33 11 24 32.4114 11 24 33 10.5 
24.3902 33 11 8 34 10.617 7.83028 34 11 
24.8851 34 11 8 34.2417 11 8.59421 35 11 
25 34.1802 11 25 35 10.3495 25.7254 35 11 
9 35.3759 11 10 36 10.9339 9.97684 36 11 
26 36 10.3533 26 35.2291 11 27 36 10.8893 
27 35.8528 11 27.1404 36 11 10 36.0156 11 
11 36.5587 11 11.6952 37 11 27 37 10.3763 
27.6762 37 11 12 37.2104 11 13 37.7266 11 
13 38 10.0497 13.617 38 11 28 38 10.8149 
28 37.666 11 28.1418 38 11 14 38.1697 11 
15 38.2999 11 16 38.2999 11 17 38.3955 11 
18 38.7266 11 18 39 10.5 18.5 39 11 
28 39 10.8149 28.1418 39 11 19 39.2734 11 
20 39.7266 11 20 40 10.4683 20.617 40 11 
27 40 10.6662 27.3172 40 11 28 39.2342 11 
21 40.1697 11 22 40.2999 11 23 40.3955 11 
24 40.6045 11 24 41 10.1869 25 40.6471 11 
26 40.5 11 27 40.2071 11 9 26 11.92 
9 25.9264 12 8.85108 26 12 10 26 11.6454 
10 25.7218 12 11 26 11.5866 11 25.7001 12 
12 26 11.5866 12 25.7001 12 13 26 11.5866 
13 25.7001 12 14 26 11.8149 14 25.8582 12 
14.334 26 12 17 26 11.8149 17 25.8582 12 
16.666 26 12 18 26 11.8149 18 25.8582 12 
18.334 26 12 8 27 11.7266 8 26.5797 12 
7.5 27 12 9 27 11.2734 15 27 11.3117 
15 26.3117 12 16 27 11.2852 16 26.3117 12 
19 27 11.3117 19 26.3117 12 20 27 11.7148 
20 26.7148 12 20.5 27 12 7 28 11.8173 
7 27.617 12 6.78057 28 12 8 28 11.2734 
21 28 11.3763 21 27.2966 12 22 28 11.8173 
22 27.7806 12 22.2746 28 12 7 29 11.6209 
6.67908 29 12 22 29 11.249 23 28.8198 12 
23 29 11.8851 23.1149 29 12 7 30 11.5688 
6.70014 30 12 23 30 11.4244 23.4832 30 12 
7 31 11.5239 6.70014 31 12 23.8173 31 12 
7 32 11.7001 6.83028 32 12 24 31.2899 12 
24 32 11.3668 24.5204 32 12 7 32.4134 12 
7.23192 33 12 25 33 11.6332 25 32.5512 12 
25.4287 33 12 7.65793 34 12 25 34 11.1149 
26 33.6332 12 26 34 11.751 26.3668 34 12 
8 34.4367 12 8.56331 35 12 26 35 11.1827 
27 34.5713 12 27 35 11.6467 27.4287 35 12 
9 35.3421 12 10 35.7681 12 10 36 11.0561 
10.5435 36 12 28 36 11.8149 28 35.7519 12 
28.1418 36 12 11 36.2104 12 12 36.6237 12 
12 37 11.3699 12.67 37 12 28 37 11.3894 
28.3955 37 12 13 37.1827 12 14 37.4461 12 
14 38 11.2417 15 37.5 12 15 38 11.4134 
16 37.5539 12 16 38 11.4312 17 37.7896 12 
17 38 11.6795 17.4252 38 12 28.5547 38 12 
18 38.2734 12 19 38.7266 12 19 39 11.5 
19.5748 39 12 28.5 39 12 20 39.2104 12 
21 39.4461 12 21 40 11.2417 22 39.5539 12 
22 40 11.4312 23 39.7896 12 23 40 11.6795 
23.5438 40 12 28 40 11.9306 28.0387 40 12 
24 40.1697 12 25 40.3529 12 26 40.457 12 
27 40.457 12 28 40.0387 12 8 26 12.6442 
8 25.7929 13 7.02416 26 13 9 25.5888 13 
10 25.5 13 11 25.5 13 12 25.5 13 
13 25.5 13 14 25.543 13 15 26 12.4083 
15 25.6471 13 16 26 12.4083 16 25.6471 13 
17 25.543 13 18 25.543 13 19 26 12.4083 
19 25.6471 13 20 26 12.8149 20 25.8582 13 
20.2847 26 13 6 27 12.92 6 26.8793 13 
5.92637 27 13 7 27 12.2827 7 26.0074 13 
21 27 12.2966 21 26.3763 13 22 27 12.8596 
22 26.8893 13 22.1404 27 13 6 28 12.9015 
5.92895 28 13 23 28 12.7254 23 27.7806 13 
23.1827 28 13 6 28.1428 13 6.35292 29 13 
23.751 29 13 6.5 30 13 24 29.4683 13 
24 30 12.6465 24.3117 30 13 6.5 31 13 
24 31 12.2194 24.7148 31 13 6.54296 32 13 
25 32 12.5 25 31.386 13 25.5 32 13 
7 33 12.5866 6.83028 33 13 26 33 12.5204 
26 32.5 13 26.4796 33 13 7 33.2417 13 
7.57337 34 13 27 34 12.5713 27 33.5713 13 
27.3533 34 13 8 34.4266 13 8.84382 35 13 
28 35 12.7519 28 34.8064 13 28.1418 35 13 
9 35.1025 13 10 35.3955 13 11 35.6045 13 
11 36 12.3205 12 35.8582 13 12 36 12.8064 
12.334 36 13 28.5 36 13 13 36.3117 13 
13 37 12.2194 14 36.5 13 14 37 12.4817 
15 36.5 13 15 37 12.5 16 36.6883 13 
16 37 12.6607 16.617 37 13 28.7681 37 13 
17 37.1827 13 18 37.6237 13 18 38 12.4424 
18.67 38 13 28.9395 38 13 19 38.1827 13 
20 38.4461 13 20 39 12.2753 21 38.5539 13 
21 39 12.5 22 38.7896 13 22 39 12.7247 
22.5 39 13 28.5922 39 13 23 39.2104 13 
24 39.4461 13 24 40 12.2417 25 39.6883 13 
25 40 12.5917 25.666 40 13 28 40 12.4697 
27.896 40 13 28 39.9429 13 26 40.1418 13 
[...]
POINT_DATA 2790
SCALARS scalars unsigned_short
LOOKUP_TABLE default
1 1 1 1 1 1 1 1 1 
1 1 1 1 1 1 1 1 1 
1 1 1 1 1 1 1 1 1 
1 1 1 1 1 1 1 1 1 
1 1 1 1 1 1 1 1 1 
1 1 1 1 1 1 1 1 1 
1 1 1 1 1 1 1 1 1 
1 1 1 1 1 1 1 1 1 
1 1 1 1 1 1 1 1 1 
1 1 1 1 1 1 1 1 1 
1 1 1 1 1 1 1 1 1 
1 1 1 1 1 1 1 1 1 
1 1 1 1 1 1 1 1 1 
1 1 1 1 1 1 1 1 1 
1 1 1 1 1 1 1 1 1 
1 1 1 1 1 1 1 1 1 
1 1 1 1 1 1 1 1 1 
1 1 1 1 1 1 1 1 1 
1 1 1 1 1 1 1 1 1 
1 1 1 1 1 1 1 1 1 
1 1 1 1 1 1 1 1 1 
1 1 1 1 1 1 1 1 1 
1 1 1 1 1 1 1 1 1 
1 1 1 1 1 1 1 1 1 
1 1 1 1 1 1 1 1 1 
1 1 1 1 1 1 1 1 1 
1 1 1 1 1 1 1 1 1 
1 1 1 1 1 1 1 1 1 
1 1 1 1 1 1 1 1 1 
1 1 1 1 1 1 1 1 1 
1 1 1 1 1 1 1 1 1 
1 1 1 1 1 1 1 1 1 
1 1 1 1 1 1 1 1 1 
1 1 1 1 1 1 1 1 1 
1 1 1 1 1 1 1 1 1 
1 1 1 1 1 1 1 1 1 
1 1 1 1 1 1 1 1 1 
1 1 1 1 1 1 1 1 1 
1 1 1 1 1 1 1 1 1 
1 1 1 1 1 1 1 1 1 
1 1 1 1 1 1 1 1 1 
1 1 1 1 1 1 1 1 1 
1 1 1 1 1 1 1 1 1 
1 1 1 1 1 1 1 1 1 
1 1 1 1 1 1 1 1 1 
1 1 1 1 1 1 1 1 1 
1 1 1 1 1 1 1 1 1 
1 1 1 1 1 1 1 1 1 
1 1 1 1 1 1 1 1 1 
1 1 1 1 1 1 1 1 1 
1 1 1 1 1 1 1 1 1 
1 1 1 1 1 1 1 1 1 
1 1 1 1 1 1 1 1 1 
1 1 1 1 1 1 1 1 1 
1 1 1 1 1 1 1 1 1 
1 1 1 1 1 1 1 1 1 
1 1 1 1 1 1 1 1 1 
1 1 1 1 1 1 1 1 1 
1 1 1 1 1 1 1 1 1 
1 1 1 1 1 1 1 1 1 
1 1 1 1 1 1 1 1 1 
1 1 1 1 1 1 1 1 1 
1 1 1 1 1 1 1 1 1 
1 1 1 1 1 1 1 1 1 
1 1 1 1 1 1 1 1 1 
1 1 1 1 1 1 1 1 1 
1 1 1 1 1 1 1 1 1 
1 1 1 1 1 1 1 1 1 
1 1 1 1 1 1 1 1 1 
1 1 1 1 1 1 1 1 1 
1 1 1 1 1 1 1 1 1 
1 1 1 1 1 1 1 1 1 
1 1 1 1 1 1 1 1 1 
1 1 1 1 1 1 1 1 1 
1 1 1 1 1 1 1 1 1 
1 1 1 1 1 1 1 1 1 
1 1 1 1 1 1 1 1 1 
1 1 1 1 1 1 1 1 1 
1 1 1 1 1 1 1 1 1 
1 1 1 1 1 1 1 1 1 
1 1 1 1 1 1 1 1 1 
1 1 1 1 1 1 1 1 1 
1 1 1 1 1 1 1 1 1 
1 1 1 1 1 1 1 1 1 
1 1 1 1 1 1 1 1 1 
1 1 1 1 1 1 1 1 1 
1 1 1 1 1 1 1 1 1 
1 1 1 1 1 1 1 1 1 
1 1 1 1 1 1 1 1 1 
1 1 1 1 1 1 1 1 1 
1 1 1 1 1 1 1 1 1 
1 1 1 1 1 1 1 1 1 
1 1 1 1 1 1 1 1 1 
1 1 1 1 1 1 1 1 1 
1 1 1 1 1 1 1 1 1 
1 1 1 1 1 1 1 1 1 
1 1 1 1 1 1 1 1 1 
1 1 1 1 1 1 1 1 1 
1 1 1 1 1 1 1 1 1 
1 1 1 1 1 1 1 1 1 
1 1 1 1 1 1 1 1 1 
1 1 1 1 1 1 1 1 1 
1 1 1 1 1 1 1 1 1 
1 1 1 1 1 1 1 1 1 
1 1 1 1 1 1 1 1 1 
1 1 1 1 1 1 1 1 1 
1 1 1 1 1 1 1 1 1 
1 1 1 1 1 1 1 1 1 
1 1 1 1 1 1 1 1 1 
1 1 1 1 1 1 1 1 1 
1 1 1 1 1 1 1 1 1 
1 1 1 1 1 1 1 1 1 
1 1 1 1 1 1 1 1 1 
1 1 1 1 1 1 1 1 1 
1 1 1 1 1 1 1 1 1 
1 1 1 1 1 1 1 1 1 
1 1 1 1 1 1 1 1 1 
1 1 1 1 1 1 1 1 1 
1 1 1 1 1 1 1 1 1 
1 1 1 1 1 1 1 1 1 
1 1 1 1 1 1 1 1 1 
1 1 1 1 1 1 1 1 1 
1 1 1 1 1 1 1 1 1 
1 1 1 1 1 1 1 1 1 
1 1 1 1 1 1 1 1 1 
1 1 1 1 1 1 1 1 1 
1 1 1 1 1 1 1 1 1 
1 1 1 1 1 1 1 1 1 
1 1 1 1 1 1 1 1 1 
1 1 1 1 1 1 1 1 1 
1 1 1 1 1 1 1 1 1 
1 1 1 1 1 1 1 1 1 
1 1 1 1 1 1 1 1 1 
1 1 1 1 1 1 1 1 1 
1 1 1 1 1 1 1 1 1 
1 1 1 1 1 1 1 1 1 
1 1 1 1 1 1 1 1 1 
1 1 1 1 1 1 1 1 1 
1 1 1 1 1 1 1 1 1 
1 1 1 1 1 1 1 1 1 
1 1 1 1 1 1 1 1 1 
1 1 1 1 1 1 1 1 1 
1 1 1 1 1 1 1 1 1 
1 1 1 1 1 1 1 1 1 
1 1 1 1 1 1 1 1 1 
1 1 1 1 1 1 1 1 1 
1 1 1 1 1 1 1 1 1 
1 1 1 1 1 1 1 1 1 
1 1 1 1 1 1 1 1 1 
1 1 1 1 1 1 1 1 1 
1 1 1 1 1 1 1 1 1 
1 1 1 1 1 1 1 1 1 
1 1 1 1 1 1 1 1 1 
1 1 1 1 1 1 1 1 1 
2 2 2 2 2 2 2 2 2 
2 2 2 2 2 2 2 2 2 
2 2 2 2 2 2 2 2 2 
2 2 2 2 2 2 2 2 2 
2 2 2 2 2 2 2 2 2 
2 2 2 2 2 2 2 2 2 
2 2 2 2 2 2 2 2 2 
2 2 2 2 2 2 2 2 2 
2 2 2 2 2 2 2 2 2 
2 2 2 2 2 2 2 2 2 
2 2 2 2 2 2 2 2 2 
2 2 2 2 2 2 2 2 2 
2 2 2 2 2 2 2 2 2 
2 2 2 2 2 2 2 2 2 
2 2 2 2 2 2 2 2 2 
2 2 2 2 2 2 2 2 2 
2 2 2 2 2 2 2 2 2 
2 2 2 2 2 2 2 2 2 
2 2 2 2 2 2 2 2 2 
2 2 2 2 2 2 2 2 2 
2 2 2 2 2 2 2 2 2 
2 2 2 2 2 2 2 2 2 
2 2 2 2 2 2 2 2 2 
2 2 2 2 2 2 2 2 2 
2 2 2 2 2 2 2 2 2 
2 2 2 2 2 2 2 2 2 
2 2 2 2 2 2 2 2 2 
2 2 2 2 2 2 2 2 2 
2 2 2 2 2 2 2 2 2 
2 2 2 2 2 2 2 2 2 
2 2 2 2 2 2 2 2 2 
2 2 2 2 2 2 2 2 2 
2 2 2 2 2 2 2 2 2 
2 2 2 2 2 2 2 2 2 
2 2 2 2 2 2 2 2 2 
2 2 2 2 2 2 2 2 2 
2 2 2 2 2 2 2 2 2 
2 2 2 2 2 2 2 2 2 
2 2 2 2 2 2 2 2 2 
2 2 2 2 2 2 2 2 2 
2 2 2 2 2 2 2 2 2 
2 2 2 2 2 2 2 2 2 
2 2 2 2 2 2 2 2 2 
2 2 2 2 2 2 2 2 2 
2 2 2 2 2 2 2 2 2 
2 2 2 2 2 2 2 2 2 
2 2 2 2 2 2 2 2 2 
2 2 2 2 2 2 2 2 2 
2 2 2 2 2 2 2 2 2 
2 2 2 2 2 2 2 2 2 
2 2 2 2 2 2 2 2 2 
2 2 2 2 2 2 2 2 2 
2 2 2 2 2 2 2 2 2 
2 2 2 2 2 2 2 2 2 
2 2 2 2 2 2 2 2 2 
2 2 2 2 2 2 2 2 2 
2 2 2 2 2 2 2 2 2 
2 2 2 2 2 2 2 2 2 
2 2 2 2 2 2 2 2 2 
2 2 2 2 2 2 2 2 2 
2 2 2 2 2 2 2 2 2 
2 2 2 2 2 2 2 2 2 
2 2 2 2 2 2 2 2 2 
2 2 2 2 2 2 2 2 2 
2 2 2 2 2 2 2 2 2 
2 2 2 2 2 2 2 2 2 
2 2 2 2 2 2 2 2 2 
2 2 2 2 2 2 2 2 2 
2 2 2 2 2 2 2 2 2 
2 2 2 2 2 2 2 2 2 
2 2 2 2 2 2 2 2 2 
2 2 2 2 2 2 2 2 2 
2 2 2 2 2 2 2 2 2 
2 2 2 2 2 2 2 2 2 
2 2 2 2 2 2 2 2 2 
2 2 2 2 2 2 2 2 2 
2 2 2 2 2 2 2 2 2 
2 2 2 2 2 2 2 2 2 
2 2 2 2 2 2 2 2 2 
2 2 2 2 2 2 2 2 2 
2 2 2 2 2 2 2 2 2 
2 2 2 2 2 2 2 2 2 
2 2 2 2 2 2 2 2 2 
2 2 2 2 2 2 2 2 2 
2 2 2 2 2 2 2 2 2 
2 2 2 2 2 2 2 2 2 
2 2 2 2 2 2 2 2 2 
2 2 2 2 2 2 2 2 2 
2 2 2 2 2 2 2 2 2 
2 2 2 2 2 2 2 2 2 
2 2 2 2 2 2 2 2 2 
2 2 2 2 2 2 2 2 2 
2 2 2 2 2 2 2 2 2 
2 2 2 2 2 2 2 2 2 
2 2 2 2 2 2 2 2 2 
2 2 2 2 2 2 2 2 2 
2 2 2 2 2 2 2 2 2 
2 2 2 2 2 2 2 2 2 
2 2 2 2 2 2 2 2 2 
2 2 2 2 2 2 2 2 2 
2 2 2 2 2 2 2 2 2 
2 2 2 2 2 2 2 2 2 
2 2 2 2 2 2 2 2 2 
2 2 2 2 2 2 2 2 2 
2 2 2 2 2 2 2 2 2 
2 2 2 2 2 2 2 2 2 
2 2 2 2 2 2 2 2 2 
2 2 2 2 2 2 2 2 2 
2 2 2 2 2 2 2 2 2 
2 2 2 2 2 2 2 2 2 
2 2 2 2 2 2 2 2 2 
2 2 2 2 2 2 2 2 2 
2 2 2 2 2 2 2 2 2 
2 2 2 2 2 2 2 2 2 
2 2 2 2 2 2 2 2 2 
2 2 2 2 2 2 2 2 2 
2 2 2 2 2 2 2 2 2 
2 2 2 2 2 2 2 2 2 
2 2 2 2 2 2 2 2 2 
2 2 2 2 2 2 2 2 2 
2 2 2 2 2 2 2 2 2 
2 2 2 2 2 2 2 2 2 
2 2 2 2 2 2 2 2 2 
2 2 2 2 2 2 2 2 2 
2 2 2 2 2 2 2 2 2 
2 2 2 2 2 2 2 2 2 
2 2 2 2 2 2 2 2 2 
2 2 2 2 2 2 2 2 2 
2 2 2 2 2 2 2 2 2 
2 2 2 2 2 2 2 2 2 
2 2 2 2 2 2 2 2 2 
2 2 2 2 2 2 2 2 2 
2 2 2 2 2 2 2 2 2 
2 2 2 2 2 2 2 2 2 
2 2 2 2 2 2 2 2 2 
2 2 2 2 2 2 2 2 2 
2 2 2 2 2 2 2 2 2 
2 2 2 2 2 2 2 2 2 
2 2 2 2 2 2 2 2 2 
2 2 2 2 2 2 2 2 2 
2 2 2 2 2 2 2 2 2 
2 2 2 2 2 2 2 2 2 
2 2 2 2 2 2 2 2 2 
2 2 2 2 2 2 2 2 2 
2 2 2 2 2 2 2 2 2 
2 2 2 2 2 2 2 2 2 
2 2 2 2 2 2 2 2 2 
2 2 2 2 2 2 2 2 2 
2 2 2 2 2 2 2 2 2 
2 2 2 2 2 2 2 2 2 
2 2 2 2 2 2 2 2 2 
2 2 2 2 2 2 2 2 2 
2 2 2 2 2 2 2 2 2 
2 2 2 2 2 2 2 2 2 
2 2 2 2 2 2 2 2 2 
2 2 2 2 2 2 2 2 2 

NORMALS normals float
-0.269242 -0.181699 -0.945777 -0.104449 -0.351429 -0.93037 -0.357867 -0.125173 -0.925345 
0.237638 -0.372789 -0.896971 0.285621 -0.428755 -0.857082 0.347599 -0.406817 -0.844793 
-0.390844 0.0496979 -0.919114 -0.447792 0.0715839 -0.891268 0.0648532 -0.129706 -0.989429 
0.448854 -0.348074 -0.823028 0.434267 -0.296219 -0.850686 0.459556 -0.297211 -0.836943 
-0.46695 0.339289 -0.816603 -0.481062 0.346698 -0.805221 -0.103017 0.188193 -0.976714 
0.318429 -0.0256853 -0.947599 0.469021 -0.132688 -0.873163 -0.489206 0.407864 -0.770924 
-0.335399 0.610142 -0.717798 -0.306697 0.599951 -0.738915 0.0638944 0.429734 -0.900692 
0.343471 0.24109 -0.907691 -0.313244 0.623653 -0.716195 0.0106348 0.547098 -0.837001 
-0.254531 -0.439697 -0.861325 -0.236722 -0.467626 -0.851639 -0.295961 -0.430297 -0.85279 
0 -0.43661 -0.899651 0 -0.494224 -0.869335 0.261968 -0.471299 -0.84217 
0.253165 -0.48379 -0.837767 0.326198 -0.472366 -0.81882 -0.428796 -0.25602 -0.866364 
-0.403593 -0.31799 -0.857902 -0.433381 -0.223197 -0.873135 -0.210536 -0.183506 -0.960208 
-0.0639721 -0.20822 -0.975988 0.141897 -0.396428 -0.907034 0.407074 -0.454184 -0.792469 
0.384661 -0.451274 -0.805225 0.426442 -0.449769 -0.784764 -0.416739 -0.0683194 -0.906455 
-0.46205 -0.0552136 -0.885134 -0.205845 -0.0279361 -0.978186 -0.253619 -0.101518 -0.961962 
-0.059793 -0.379621 -0.923208 0.326359 -0.453093 -0.829576 0.445242 -0.445242 -0.776865 
0.439211 -0.439211 -0.783701 0.445242 -0.445242 -0.776865 -0.417715 0 -0.908578 
-0.468955 0.00792131 -0.883187 -0.232448 0 -0.972609 -0.39113 -0.031739 -0.919788 
0.437561 -0.40831 -0.801139 0.448358 -0.432408 -0.782303 0.44759 -0.402269 -0.798651 
0.458644 -0.411834 -0.787425 -0.422861 0.147652 -0.894084 -0.504131 0.155208 -0.849566 
-0.230075 0.142531 -0.962679 -0.41519 0.109785 -0.903086 0.463405 -0.278298 -0.841312 
0.497429 -0.328824 -0.802769 0.50458 -0.273186 -0.819004 0.529817 -0.26272 -0.806394 
-0.426238 0.543634 -0.723038 -0.391939 0.593058 -0.703325 -0.24855 0.584735 -0.772209 
-0.413153 0.446538 -0.793668 0.500199 -0.16959 -0.849141 0.541947 -0.113156 -0.83276 
0.56027 -0.0946606 -0.822883 -0.261391 0.693747 -0.671111 -0.413744 0.660733 -0.626296 
-0.485376 0.687033 -0.540736 -0.466416 0.726454 -0.504698 0.406058 0.187468 -0.894412 
0.569187 0.131628 -0.811604 0.555336 0.122307 -0.822583 -0.470171 0.751125 -0.463413 
-0.406596 0.797775 -0.445236 -0.234158 0.807609 -0.541238 -0.320868 0.819505 -0.474822 
0.107611 0.743055 -0.660522 0.398345 0.603851 -0.690424 0.406168 0.594775 -0.693736 
-0.252465 0.841047 -0.478436 0.0668528 0.846251 -0.528574 -0.225615 -0.520262 -0.823666 
-0.217724 -0.552401 -0.804642 -0.252781 -0.536365 -0.805242 0 -0.528153 -0.849149 
0 -0.605281 -0.796012 0.254344 -0.516469 -0.817661 0.241239 -0.549263 -0.800071 
0.319292 -0.50564 -0.801486 -0.232445 -0.475227 -0.848604 -0.225589 -0.525982 -0.820032 
-0.257122 -0.512848 -0.81907 -0.118952 -0.463164 -0.878254 -0.13764 -0.561342 -0.816058 
-0.170532 -0.46421 -0.869153 -0.239541 -0.527017 -0.815398 -0.169375 -0.475494 -0.86326 
0 -0.493043 -0.870005 0.220646 -0.470574 -0.854327 0.411834 -0.458644 -0.787425 
0.402269 -0.44759 -0.798651 0.432408 -0.448358 -0.782303 -0.312511 -0.388851 -0.866679 
-0.298326 -0.455398 -0.838817 -0.410478 -0.367766 -0.83442 -0.0969011 -0.461357 -0.881907 
-0.12963 -0.555929 -0.821059 -0.0972521 -0.37592 -0.921535 -0.223771 -0.499176 -0.837108 
-0.12062 -0.186343 -0.975052 -0.181995 -0.205163 -0.961658 -0.316788 -0.383197 -0.867643 
0.406258 -0.446728 -0.797112 0.445242 -0.445242 -0.776865 0.439211 -0.439211 -0.783701 
0.445242 -0.445242 -0.776865 -0.413874 0.135133 -0.900249 -0.589146 0.213297 -0.779366 
-0.127503 -0.167615 -0.977573 0.036928 -0.153243 -0.987498 -0.0622326 -0.0284921 -0.997655 
-0.344647 -0.0985199 -0.933548 0.439211 -0.439211 -0.783701 0.445242 -0.445242 -0.776865 
0.439211 -0.439211 -0.783701 0.445242 -0.445242 -0.776865 -0.585769 0.413742 -0.696917 
-0.608386 0.487042 -0.626623 -0.350605 0.237243 -0.905976 0.0561775 0.0942536 -0.993962 
-0.0570022 0.0285011 -0.997967 -0.41751 -0.0313368 -0.908132 0.439211 -0.439211 -0.783701 
0.445242 -0.445242 -0.776865 0.439211 -0.439211 -0.783701 0.454164 -0.430987 -0.779734 
-0.558968 0.632297 -0.536429 -0.556011 0.633531 -0.538043 -0.196849 0.463262 -0.864083 
-0.188163 0.18582 -0.964399 -0.436438 0.0280773 -0.899296 0.463074 -0.402467 -0.789673 
0.508698 -0.373285 -0.775812 0.532275 -0.336009 -0.777033 0.552403 -0.323163 -0.768386 
-0.369179 0.615967 -0.695911 -0.4667 0.568681 -0.677343 -0.466714 0.498324 -0.730651 
-0.531882 0.215039 -0.81906 0.578952 -0.219169 -0.785353 0.565079 -0.281349 -0.775583 
-0.493073 0.552894 -0.671705 -0.536637 0.700224 -0.470859 -0.538956 0.682623 -0.493511 
-0.414129 0.607037 -0.678236 0.542613 -0.101864 -0.833784 0.544642 -0.264341 -0.79592 
0.524415 -0.224943 -0.821212 0.542917 -0.224229 -0.809298 -0.522775 0.716305 -0.462182 
-0.301388 0.92081 -0.247539 -0.366336 0.910358 -0.192473 -0.480435 0.811051 -0.333732 
-0.465514 0.859326 -0.211789 0.509171 0.0990955 -0.854941 0.509715 0.0410049 -0.859365 
0.559739 0.0420209 -0.827603 -0.480447 0.847994 -0.22378 -0.474921 0.862218 -0.176155 
-0.447285 0.843719 -0.296771 -0.472303 0.860156 -0.192513 0.401643 0.601665 -0.690422 
0.362409 0.499646 -0.786774 0.454238 0.41569 -0.787953 0.468655 0.413642 -0.780553 
-0.445428 0.872551 -0.200621 -0.21157 0.964922 -0.15545 -0.0853358 0.978538 -0.187567 
0.0109646 0.904314 -0.426727 0.193574 0.707317 -0.679877 0.446115 0.445481 -0.776227 
-0.2663 -0.565726 -0.780409 -0.232229 -0.589728 -0.773493 -0.248788 -0.556791 -0.79252 
-0.133675 -0.643705 -0.753508 -0.0939172 -0.661878 -0.743705 0 -0.681672 -0.731658 
0 -0.658322 -0.752736 0.142233 -0.642931 -0.752602 0.117881 -0.660182 -0.741798 
0.334539 -0.573744 -0.747597 0.323856 -0.599412 -0.731999 0.36751 -0.571867 -0.73342 
-0.285288 -0.52809 -0.799832 -0.246945 -0.508311 -0.825008 -0.287609 -0.533936 -0.795106 
-0.162001 -0.624511 -0.76403 -0.126957 -0.580744 -0.804126 -0.162001 -0.624511 -0.76403 
-0.219788 -0.559806 -0.798944 -0.272072 -0.538754 -0.797321 0.401676 -0.466394 -0.78812 
0.43279 -0.501749 -0.748959 0.434451 -0.458594 -0.775206 0.440618 -0.46347 -0.768799 
-0.423266 -0.449103 -0.786862 -0.389883 -0.479586 -0.786122 -0.471635 -0.403133 -0.784248 
-0.184334 -0.638404 -0.747303 -0.1703 -0.650864 -0.739847 -0.16128 -0.628829 -0.760633 
-0.255948 -0.563673 -0.785342 -0.273875 -0.529922 -0.802606 0.439211 -0.439211 -0.783701 
0.443799 -0.451028 -0.774349 0.439211 -0.439211 -0.783701 0.451028 -0.443799 -0.774349 
-0.660757 -0.191962 -0.725638 -0.769177 -0.0127363 -0.638908 0.439211 -0.439211 -0.783701 
0.46347 -0.440618 -0.768799 0.458594 -0.434451 -0.775206 0.501056 -0.44624 -0.741494 
-0.745812 0.313483 -0.587787 -0.815082 0.36851 -0.447038 0.442596 -0.438399 -0.78225 
0.521552 -0.460399 -0.718343 0.492593 -0.456657 -0.740821 0.544508 -0.475125 -0.691208 
-0.730239 0.513393 -0.450754 -0.628156 0.578724 -0.520095 -0.627605 0.651405 -0.426361 
0.47063 -0.412756 -0.779833 0.643191 -0.415464 -0.643191 0.638216 -0.394179 -0.661289 
0.65846 -0.40055 -0.637174 -0.640235 0.676468 -0.363993 -0.561047 0.635471 -0.530474 
-0.677561 0.690038 -0.254478 0.60652 -0.293492 -0.738915 0.637977 -0.377108 -0.671398 
-0.661668 0.716607 -0.22061 -0.528706 0.739495 -0.416674 -0.580542 0.757386 -0.298892 
0.554502 -0.297791 -0.777076 0.600547 -0.385775 -0.700372 0.572456 -0.356959 -0.738156 
0.581527 -0.368243 -0.725413 -0.555765 0.766668 -0.321474 -0.52375 0.793258 -0.31053 
-0.490952 0.831999 -0.25835 0.581105 -0.202341 -0.788274 0.571503 -0.241043 -0.7844 
-0.351175 0.920943 -0.16894 -0.178819 0.98319 -0.0368973 -0.345536 0.935956 0.067754 
-0.466559 0.869893 0.160027 0.585348 0.0583535 -0.808679 0.591727 0.0979175 -0.80017 
-0.484591 0.855309 0.183354 -0.475463 0.863203 0.169749 -0.472303 0.860156 0.192513 
0.591861 0.42595 -0.6843 0.603158 0.472044 -0.642943 -0.445428 0.872551 0.200621 
-0.24295 0.96181 0.126086 -0.240685 0.970238 0.0266156 -0.287503 0.957506 -0.0229057 
-0.0692157 0.971012 -0.228792 -0.191571 0.977665 -0.086442 0.27242 0.877208 -0.39534 
0.306299 0.87263 -0.380392 0.57681 0.578373 -0.576867 -0.103313 0.985561 -0.134146 
0.260969 0.89695 -0.356897 -0.333002 -0.3837 -0.861327 -0.300517 -0.397117 -0.867172 
-0.346953 -0.361073 -0.865592 -0.0961866 -0.473724 -0.875405 -0.0704804 -0.505672 -0.859842 
-0.0222357 -0.492921 -0.86979 0 -0.512643 -0.858602 -0.0730672 -0.543992 -0.835903 
0 -0.562797 -0.826595 -0.102682 -0.650152 -0.752834 -0.0607818 -0.663588 -0.745625 
-0.0780079 -0.660289 -0.74695 -0.157197 -0.660318 -0.734349 0 -0.612854 -0.790196 
-0.0319471 -0.59428 -0.803623 0.130739 -0.647997 -0.750338 0.205235 -0.593397 -0.778305 
0.296743 -0.638622 -0.710004 0.29713 -0.620673 -0.725588 0.347317 -0.598959 -0.721539 
-0.369478 -0.339443 -0.865023 -0.357336 -0.409236 -0.839546 -0.168234 -0.435631 -0.884264 
-0.0934428 -0.517719 -0.850433 -0.223433 -0.533581 -0.815701 0.405491 -0.560396 -0.722173 
0.368243 -0.581527 -0.725413 0.41901 -0.545219 -0.726063 0.414884 -0.562326 -0.715304 
0.448195 -0.553769 -0.701756 -0.225121 -0.606219 -0.76277 -0.224541 -0.547784 -0.805925 
-0.599414 -0.398076 -0.694434 -0.16162 -0.6268 -0.762234 -0.323021 -0.452843 -0.831018 
-0.286874 -0.520421 -0.804279 0.437785 -0.457887 -0.773746 0.506426 -0.50883 -0.69615 
0.486995 -0.475838 -0.732403 0.537707 -0.494938 -0.682575 -0.756261 -0.107168 -0.645433 
-0.607307 -0.390113 -0.692091 -0.831955 -0.0636768 -0.551178 0.465011 -0.43596 -0.770522 
0.635434 -0.438687 -0.635434 0.628788 -0.424437 -0.651521 0.650836 -0.423991 -0.629797 
-0.825836 0.217957 -0.520087 -0.842521 0.248974 -0.477671 0.582106 -0.435998 -0.686337 
0.678309 -0.430898 -0.595167 -0.825824 0.325468 -0.460526 -0.805817 0.4454 -0.390228 
0.687599 -0.472644 -0.551195 0.710295 -0.455241 -0.536877 0.728074 -0.452477 -0.514949 
-0.669654 0.656199 -0.347802 -0.686509 0.649722 -0.326447 0.71467 -0.475165 -0.513288 
-0.665773 0.672184 -0.323907 -0.575953 0.780401 -0.243417 -0.594457 0.779695 -0.196716 
0.670871 -0.503945 -0.544032 0.629167 -0.471539 -0.617899 0.558925 -0.538765 -0.630345 
-0.647368 0.759802 -0.0601253 -0.641932 0.766593 -0.0161062 0.564741 -0.434593 -0.701567 
0.535392 -0.50836 -0.674482 0.555137 -0.44807 -0.700754 -0.610185 0.792259 0 
-0.515222 0.856971 0.0121169 -0.513697 0.857339 0.0329379 0.561499 -0.256001 -0.786881 
0.597351 -0.309191 -0.739981 0.602289 -0.242916 -0.760421 0.62977 -0.234864 -0.740424 
-0.510782 0.859056 0.0335485 -0.258605 0.961173 0.0962808 -0.084766 0.989362 0.118226 
-0.155636 0.966074 0.206105 -0.355365 0.855048 0.377634 -0.448925 0.850944 0.272691 
-0.409757 0.819105 0.401456 0.592254 0.101072 -0.799387 0.645937 0.233811 -0.726703 
0.664285 0.246783 -0.705566 -0.438414 0.8027 0.404309 -0.437561 0.801139 0.40831 
-0.458262 0.840279 0.289701 -0.417505 0.818693 0.394248 0.592147 0.602754 -0.534835 
0.575532 0.648247 -0.498537 0.639539 0.372247 -0.672623 -0.376161 0.855602 0.355595 
-0.239225 0.941033 0.239225 -0.190009 0.929005 0.317563 -0.232412 0.899558 0.369838 
-0.165069 0.984375 0.061299 -0.120927 0.944076 0.306752 0.191751 0.973673 0.123257 
0.397774 0.916932 -0.031807 0.562954 0.723394 -0.399729 -0.0424009 0.965718 0.256107 
-0.259574 -0.486085 -0.834471 -0.247575 -0.538287 -0.805577 -0.323345 -0.486476 -0.811658 
-0.0645961 -0.51116 -0.857054 -0.0581403 -0.611482 -0.789119 0 -0.528153 -0.849149 
0 -0.618237 -0.785992 0.0750043 -0.526666 -0.846757 0.0809461 -0.616208 -0.783413 
0.254207 -0.564608 -0.785237 0.264155 -0.591322 -0.761945 0.236002 -0.604107 -0.761155 
-0.168904 -0.654807 -0.736681 -0.184127 -0.673766 -0.715637 -0.202258 -0.674877 -0.709671 
0.214138 -0.606484 -0.765717 0.209983 -0.633448 -0.744748 0.266519 -0.620946 -0.737152 
-0.376161 -0.355595 -0.855602 -0.401091 -0.415407 -0.816433 -0.423265 -0.39309 -0.816289 
-0.237548 -0.265323 -0.934438 -0.119751 -0.405424 -0.906251 -0.0300076 -0.492821 -0.869613 
0.0222357 -0.492921 -0.86979 0.0728451 -0.547907 -0.833361 0.131093 -0.662861 -0.737177 
-0.00437223 -0.662301 -0.749225 -0.18008 -0.669426 -0.720722 -0.203997 -0.690046 -0.694422 
-0.0338007 -0.594962 -0.803043 0.214622 -0.575371 -0.789231 0.320783 -0.615678 -0.719749 
0.271989 -0.597549 -0.754292 0.356271 -0.581804 -0.731146 0.358088 -0.599886 -0.715478 
0.381283 -0.58068 -0.719329 -0.463458 -0.316713 -0.827587 -0.474791 -0.350493 -0.807297 
-0.52264 -0.286114 -0.80311 -0.26105 -0.259322 -0.929841 -0.332715 -0.218057 -0.91747 
0.367664 -0.571597 -0.733553 0.429514 -0.560764 -0.707857 0.42254 -0.568327 -0.706021 
0.461975 -0.526626 -0.713613 -0.492646 -0.329438 -0.805463 -0.668498 -0.16516 -0.725143 
-0.217029 -0.455357 -0.863451 -0.33995 -0.416637 -0.843118 0.53783 -0.53783 -0.649213 
0.506414 -0.514681 -0.691844 0.598436 -0.485751 -0.637119 -0.60443 -0.393736 -0.692558 
-0.818153 -0.0642381 -0.5714 0.685932 -0.476606 -0.549859 0.685149 -0.457103 -0.567123 
0.732305 -0.451407 -0.509863 -0.895475 0.0885717 -0.436211 0.732223 -0.455055 -0.506729 
-0.911988 0.258949 -0.318157 0.713486 -0.457286 -0.530874 0.695602 -0.446805 -0.562586 
0.680659 -0.432391 -0.591389 -0.815874 0.476574 -0.327454 -0.83029 0.48365 -0.276951 
0.650836 -0.423991 -0.629797 -0.80605 0.533244 -0.256777 -0.702593 0.699017 -0.133188 
0.632054 -0.440261 -0.637714 0.667842 -0.499297 -0.551987 0.472936 -0.54516 -0.692194 
-0.641415 0.761589 -0.0925745 -0.550649 0.834736 0.000940805 -0.548117 0.836236 0.0166635 
0.489587 -0.559059 -0.669147 0.43086 -0.559311 -0.708189 0.499059 -0.484684 -0.718347 
0.489034 -0.498749 -0.715608 0.519097 -0.4749 -0.71064 -0.546705 0.837135 0.0178328 
-0.53069 0.830814 0.167677 -0.536172 0.794885 0.284036 0.581382 -0.414612 -0.700066 
0.683357 -0.355468 -0.637704 -0.525832 0.788697 0.318524 -0.437398 0.816585 0.37666 
-0.510032 0.858686 0.0502591 -0.339017 0.836356 0.430785 0.789224 -0.187 -0.584942 
0.775676 -0.240219 -0.583628 0.815558 -0.181107 -0.549605 -0.265745 0.854312 0.446688 